# vtk DataFile Version 2.0 
Quadtree Mesh 
ASCII 
DATASET UNSTRUCTURED_GRID 
POINTS 16384 double 
-1.000000e+00 -1.000000e+00 0.000000e+00
-9.842520e-01 -1.000000e+00 0.000000e+00
-9.685039e-01 -1.000000e+00 0.000000e+00
-9.527559e-01 -1.000000e+00 0.000000e+00
-9.370079e-01 -1.000000e+00 0.000000e+00
-9.212598e-01 -1.000000e+00 0.000000e+00
-9.055118e-01 -1.000000e+00 0.000000e+00
-8.897638e-01 -1.000000e+00 0.000000e+00
-8.740157e-01 -1.000000e+00 0.000000e+00
-8.582677e-01 -1.000000e+00 0.000000e+00
-8.425197e-01 -1.000000e+00 0.000000e+00
-8.267717e-01 -1.000000e+00 0.000000e+00
-8.110236e-01 -1.000000e+00 0.000000e+00
-7.952756e-01 -1.000000e+00 0.000000e+00
-7.795276e-01 -1.000000e+00 0.000000e+00
-7.637795e-01 -1.000000e+00 0.000000e+00
-7.480315e-01 -1.000000e+00 0.000000e+00
-7.322835e-01 -1.000000e+00 0.000000e+00
-7.165354e-01 -1.000000e+00 0.000000e+00
-7.007874e-01 -1.000000e+00 0.000000e+00
-6.850394e-01 -1.000000e+00 0.000000e+00
-6.692913e-01 -1.000000e+00 0.000000e+00
-6.535433e-01 -1.000000e+00 0.000000e+00
-6.377953e-01 -1.000000e+00 0.000000e+00
-6.220472e-01 -1.000000e+00 0.000000e+00
-6.062992e-01 -1.000000e+00 0.000000e+00
-5.905512e-01 -1.000000e+00 0.000000e+00
-5.748031e-01 -1.000000e+00 0.000000e+00
-5.590551e-01 -1.000000e+00 0.000000e+00
-5.433071e-01 -1.000000e+00 0.000000e+00
-5.275591e-01 -1.000000e+00 0.000000e+00
-5.118110e-01 -1.000000e+00 0.000000e+00
-4.960630e-01 -1.000000e+00 0.000000e+00
-4.803150e-01 -1.000000e+00 0.000000e+00
-4.645669e-01 -1.000000e+00 0.000000e+00
-4.488189e-01 -1.000000e+00 0.000000e+00
-4.330709e-01 -1.000000e+00 0.000000e+00
-4.173228e-01 -1.000000e+00 0.000000e+00
-4.015748e-01 -1.000000e+00 0.000000e+00
-3.858268e-01 -1.000000e+00 0.000000e+00
-3.700787e-01 -1.000000e+00 0.000000e+00
-3.543307e-01 -1.000000e+00 0.000000e+00
-3.385827e-01 -1.000000e+00 0.000000e+00
-3.228346e-01 -1.000000e+00 0.000000e+00
-3.070866e-01 -1.000000e+00 0.000000e+00
-2.913386e-01 -1.000000e+00 0.000000e+00
-2.755906e-01 -1.000000e+00 0.000000e+00
-2.598425e-01 -1.000000e+00 0.000000e+00
-2.440945e-01 -1.000000e+00 0.000000e+00
-2.283465e-01 -1.000000e+00 0.000000e+00
-2.125984e-01 -1.000000e+00 0.000000e+00
-1.968504e-01 -1.000000e+00 0.000000e+00
-1.811024e-01 -1.000000e+00 0.000000e+00
-1.653543e-01 -1.000000e+00 0.000000e+00
-1.496063e-01 -1.000000e+00 0.000000e+00
-1.338583e-01 -1.000000e+00 0.000000e+00
-1.181102e-01 -1.000000e+00 0.000000e+00
-1.023622e-01 -1.000000e+00 0.000000e+00
-8.661417e-02 -1.000000e+00 0.000000e+00
-7.086614e-02 -1.000000e+00 0.000000e+00
-5.511811e-02 -1.000000e+00 0.000000e+00
-3.937008e-02 -1.000000e+00 0.000000e+00
-2.362205e-02 -1.000000e+00 0.000000e+00
-7.874016e-03 -1.000000e+00 0.000000e+00
7.874016e-03 -1.000000e+00 0.000000e+00
2.362205e-02 -1.000000e+00 0.000000e+00
3.937008e-02 -1.000000e+00 0.000000e+00
5.511811e-02 -1.000000e+00 0.000000e+00
7.086614e-02 -1.000000e+00 0.000000e+00
8.661417e-02 -1.000000e+00 0.000000e+00
1.023622e-01 -1.000000e+00 0.000000e+00
1.181102e-01 -1.000000e+00 0.000000e+00
1.338583e-01 -1.000000e+00 0.000000e+00
1.496063e-01 -1.000000e+00 0.000000e+00
1.653543e-01 -1.000000e+00 0.000000e+00
1.811024e-01 -1.000000e+00 0.000000e+00
1.968504e-01 -1.000000e+00 0.000000e+00
2.125984e-01 -1.000000e+00 0.000000e+00
2.283465e-01 -1.000000e+00 0.000000e+00
2.440945e-01 -1.000000e+00 0.000000e+00
2.598425e-01 -1.000000e+00 0.000000e+00
2.755906e-01 -1.000000e+00 0.000000e+00
2.913386e-01 -1.000000e+00 0.000000e+00
3.070866e-01 -1.000000e+00 0.000000e+00
3.228346e-01 -1.000000e+00 0.000000e+00
3.385827e-01 -1.000000e+00 0.000000e+00
3.543307e-01 -1.000000e+00 0.000000e+00
3.700787e-01 -1.000000e+00 0.000000e+00
3.858268e-01 -1.000000e+00 0.000000e+00
4.015748e-01 -1.000000e+00 0.000000e+00
4.173228e-01 -1.000000e+00 0.000000e+00
4.330709e-01 -1.000000e+00 0.000000e+00
4.488189e-01 -1.000000e+00 0.000000e+00
4.645669e-01 -1.000000e+00 0.000000e+00
4.803150e-01 -1.000000e+00 0.000000e+00
4.960630e-01 -1.000000e+00 0.000000e+00
5.118110e-01 -1.000000e+00 0.000000e+00
5.275591e-01 -1.000000e+00 0.000000e+00
5.433071e-01 -1.000000e+00 0.000000e+00
5.590551e-01 -1.000000e+00 0.000000e+00
5.748031e-01 -1.000000e+00 0.000000e+00
5.905512e-01 -1.000000e+00 0.000000e+00
6.062992e-01 -1.000000e+00 0.000000e+00
6.220472e-01 -1.000000e+00 0.000000e+00
6.377953e-01 -1.000000e+00 0.000000e+00
6.535433e-01 -1.000000e+00 0.000000e+00
6.692913e-01 -1.000000e+00 0.000000e+00
6.850394e-01 -1.000000e+00 0.000000e+00
7.007874e-01 -1.000000e+00 0.000000e+00
7.165354e-01 -1.000000e+00 0.000000e+00
7.322835e-01 -1.000000e+00 0.000000e+00
7.480315e-01 -1.000000e+00 0.000000e+00
7.637795e-01 -1.000000e+00 0.000000e+00
7.795276e-01 -1.000000e+00 0.000000e+00
7.952756e-01 -1.000000e+00 0.000000e+00
8.110236e-01 -1.000000e+00 0.000000e+00
8.267717e-01 -1.000000e+00 0.000000e+00
8.425197e-01 -1.000000e+00 0.000000e+00
8.582677e-01 -1.000000e+00 0.000000e+00
8.740157e-01 -1.000000e+00 0.000000e+00
8.897638e-01 -1.000000e+00 0.000000e+00
9.055118e-01 -1.000000e+00 0.000000e+00
9.212598e-01 -1.000000e+00 0.000000e+00
9.370079e-01 -1.000000e+00 0.000000e+00
9.527559e-01 -1.000000e+00 0.000000e+00
9.685039e-01 -1.000000e+00 0.000000e+00
9.842520e-01 -1.000000e+00 0.000000e+00
1.000000e+00 -1.000000e+00 0.000000e+00
-1.000000e+00 -9.842520e-01 0.000000e+00
-9.842520e-01 -9.842520e-01 0.000000e+00
-9.685039e-01 -9.842520e-01 0.000000e+00
-9.527559e-01 -9.842520e-01 0.000000e+00
-9.370079e-01 -9.842520e-01 0.000000e+00
-9.212598e-01 -9.842520e-01 0.000000e+00
-9.055118e-01 -9.842520e-01 0.000000e+00
-8.897638e-01 -9.842520e-01 0.000000e+00
-8.740157e-01 -9.842520e-01 0.000000e+00
-8.582677e-01 -9.842520e-01 0.000000e+00
-8.425197e-01 -9.842520e-01 0.000000e+00
-8.267717e-01 -9.842520e-01 0.000000e+00
-8.110236e-01 -9.842520e-01 0.000000e+00
-7.952756e-01 -9.842520e-01 0.000000e+00
-7.795276e-01 -9.842520e-01 0.000000e+00
-7.637795e-01 -9.842520e-01 0.000000e+00
-7.480315e-01 -9.842520e-01 0.000000e+00
-7.322835e-01 -9.842520e-01 0.000000e+00
-7.165354e-01 -9.842520e-01 0.000000e+00
-7.007874e-01 -9.842520e-01 0.000000e+00
-6.850394e-01 -9.842520e-01 0.000000e+00
-6.692913e-01 -9.842520e-01 0.000000e+00
-6.535433e-01 -9.842520e-01 0.000000e+00
-6.377953e-01 -9.842520e-01 0.000000e+00
-6.220472e-01 -9.842520e-01 0.000000e+00
-6.062992e-01 -9.842520e-01 0.000000e+00
-5.905512e-01 -9.842520e-01 0.000000e+00
-5.748031e-01 -9.842520e-01 0.000000e+00
-5.590551e-01 -9.842520e-01 0.000000e+00
-5.433071e-01 -9.842520e-01 0.000000e+00
-5.275591e-01 -9.842520e-01 0.000000e+00
-5.118110e-01 -9.842520e-01 0.000000e+00
-4.960630e-01 -9.842520e-01 0.000000e+00
-4.803150e-01 -9.842520e-01 0.000000e+00
-4.645669e-01 -9.842520e-01 0.000000e+00
-4.488189e-01 -9.842520e-01 0.000000e+00
-4.330709e-01 -9.842520e-01 0.000000e+00
-4.173228e-01 -9.842520e-01 0.000000e+00
-4.015748e-01 -9.842520e-01 0.000000e+00
-3.858268e-01 -9.842520e-01 0.000000e+00
-3.700787e-01 -9.842520e-01 0.000000e+00
-3.543307e-01 -9.842520e-01 0.000000e+00
-3.385827e-01 -9.842520e-01 0.000000e+00
-3.228346e-01 -9.842520e-01 0.000000e+00
-3.070866e-01 -9.842520e-01 0.000000e+00
-2.913386e-01 -9.842520e-01 0.000000e+00
-2.755906e-01 -9.842520e-01 0.000000e+00
-2.598425e-01 -9.842520e-01 0.000000e+00
-2.440945e-01 -9.842520e-01 0.000000e+00
-2.283465e-01 -9.842520e-01 0.000000e+00
-2.125984e-01 -9.842520e-01 0.000000e+00
-1.968504e-01 -9.842520e-01 0.000000e+00
-1.811024e-01 -9.842520e-01 0.000000e+00
-1.653543e-01 -9.842520e-01 0.000000e+00
-1.496063e-01 -9.842520e-01 0.000000e+00
-1.338583e-01 -9.842520e-01 0.000000e+00
-1.181102e-01 -9.842520e-01 0.000000e+00
-1.023622e-01 -9.842520e-01 0.000000e+00
-8.661417e-02 -9.842520e-01 0.000000e+00
-7.086614e-02 -9.842520e-01 0.000000e+00
-5.511811e-02 -9.842520e-01 0.000000e+00
-3.937008e-02 -9.842520e-01 0.000000e+00
-2.362205e-02 -9.842520e-01 0.000000e+00
-7.874016e-03 -9.842520e-01 0.000000e+00
7.874016e-03 -9.842520e-01 0.000000e+00
2.362205e-02 -9.842520e-01 0.000000e+00
3.937008e-02 -9.842520e-01 0.000000e+00
5.511811e-02 -9.842520e-01 0.000000e+00
7.086614e-02 -9.842520e-01 0.000000e+00
8.661417e-02 -9.842520e-01 0.000000e+00
1.023622e-01 -9.842520e-01 0.000000e+00
1.181102e-01 -9.842520e-01 0.000000e+00
1.338583e-01 -9.842520e-01 0.000000e+00
1.496063e-01 -9.842520e-01 0.000000e+00
1.653543e-01 -9.842520e-01 0.000000e+00
1.811024e-01 -9.842520e-01 0.000000e+00
1.968504e-01 -9.842520e-01 0.000000e+00
2.125984e-01 -9.842520e-01 0.000000e+00
2.283465e-01 -9.842520e-01 0.000000e+00
2.440945e-01 -9.842520e-01 0.000000e+00
2.598425e-01 -9.842520e-01 0.000000e+00
2.755906e-01 -9.842520e-01 0.000000e+00
2.913386e-01 -9.842520e-01 0.000000e+00
3.070866e-01 -9.842520e-01 0.000000e+00
3.228346e-01 -9.842520e-01 0.000000e+00
3.385827e-01 -9.842520e-01 0.000000e+00
3.543307e-01 -9.842520e-01 0.000000e+00
3.700787e-01 -9.842520e-01 0.000000e+00
3.858268e-01 -9.842520e-01 0.000000e+00
4.015748e-01 -9.842520e-01 0.000000e+00
4.173228e-01 -9.842520e-01 0.000000e+00
4.330709e-01 -9.842520e-01 0.000000e+00
4.488189e-01 -9.842520e-01 0.000000e+00
4.645669e-01 -9.842520e-01 0.000000e+00
4.803150e-01 -9.842520e-01 0.000000e+00
4.960630e-01 -9.842520e-01 0.000000e+00
5.118110e-01 -9.842520e-01 0.000000e+00
5.275591e-01 -9.842520e-01 0.000000e+00
5.433071e-01 -9.842520e-01 0.000000e+00
5.590551e-01 -9.842520e-01 0.000000e+00
5.748031e-01 -9.842520e-01 0.000000e+00
5.905512e-01 -9.842520e-01 0.000000e+00
6.062992e-01 -9.842520e-01 0.000000e+00
6.220472e-01 -9.842520e-01 0.000000e+00
6.377953e-01 -9.842520e-01 0.000000e+00
6.535433e-01 -9.842520e-01 0.000000e+00
6.692913e-01 -9.842520e-01 0.000000e+00
6.850394e-01 -9.842520e-01 0.000000e+00
7.007874e-01 -9.842520e-01 0.000000e+00
7.165354e-01 -9.842520e-01 0.000000e+00
7.322835e-01 -9.842520e-01 0.000000e+00
7.480315e-01 -9.842520e-01 0.000000e+00
7.637795e-01 -9.842520e-01 0.000000e+00
7.795276e-01 -9.842520e-01 0.000000e+00
7.952756e-01 -9.842520e-01 0.000000e+00
8.110236e-01 -9.842520e-01 0.000000e+00
[...]
POINT_DATA 16384 
SCALARS concentration double 1 
LOOKUP_TABLE default 
2.519752e+00 
2.495211e+00 
2.470791e+00 
2.446496e+00 
2.422329e+00 
2.398291e+00 
2.374387e+00 
2.350620e+00 
2.326992e+00 
2.303506e+00 
2.280167e+00 
2.256977e+00 
2.233940e+00 
2.211060e+00 
2.188341e+00 
2.165785e+00 
2.143398e+00 
2.121183e+00 
2.099145e+00 
2.077287e+00 
2.055614e+00 
2.034130e+00 
2.012840e+00 
1.991749e+00 
1.970862e+00 
1.950183e+00 
1.929718e+00 
1.909471e+00 
1.889449e+00 
1.869656e+00 
1.850098e+00 
1.830780e+00 
1.811709e+00 
1.792891e+00 
1.774330e+00 
1.756034e+00 
1.738009e+00 
1.720260e+00 
1.702794e+00 
1.685618e+00 
1.668738e+00 
1.652161e+00 
1.635892e+00 
1.619940e+00 
1.604311e+00 
1.589011e+00 
1.574047e+00 
1.559427e+00 
1.545156e+00 
1.531242e+00 
1.517692e+00 
1.504512e+00 
1.491710e+00 
1.479291e+00 
1.467263e+00 
1.455632e+00 
1.444405e+00 
1.433588e+00 
1.423188e+00 
1.413210e+00 
1.403662e+00 
1.394547e+00 
1.385874e+00 
1.377646e+00 
1.369869e+00 
1.362548e+00 
1.355686e+00 
1.349285e+00 
1.343342e+00 
1.337849e+00 
1.332783e+00 
1.328101e+00 
1.323727e+00 
1.319557e+00 
1.315485e+00 
1.311472e+00 
1.307618e+00 
1.304037e+00 
1.300815e+00 
1.298004e+00 
1.295635e+00 
1.293721e+00 
1.292269e+00 
1.291283e+00 
1.290765e+00 
1.290714e+00 
1.291129e+00 
1.292011e+00 
1.293358e+00 
1.295168e+00 
1.297439e+00 
1.300168e+00 
1.303354e+00 
1.306994e+00 
1.311085e+00 
1.315623e+00 
1.320605e+00 
1.326027e+00 
1.331887e+00 
1.338179e+00 
1.344899e+00 
1.352044e+00 
1.359609e+00 
1.367589e+00 
1.375980e+00 
1.384776e+00 
1.393973e+00 
1.403566e+00 
1.413550e+00 
1.423920e+00 
1.434670e+00 
1.445796e+00 
1.457291e+00 
1.469151e+00 
1.481371e+00 
1.493945e+00 
1.506867e+00 
1.520133e+00 
1.533736e+00 
1.547673e+00 
1.561936e+00 
1.576522e+00 
1.591425e+00 
1.606638e+00 
1.622159e+00 
1.637980e+00 
1.654097e+00 
1.670505e+00 
2.499775e+00 
2.475063e+00 
2.450471e+00 
2.426001e+00 
2.401657e+00 
2.377440e+00 
2.353355e+00 
2.329405e+00 
2.305592e+00 
2.281920e+00 
2.258392e+00 
2.235012e+00 
2.211784e+00 
2.188711e+00 
2.165796e+00 
2.143045e+00 
2.120461e+00 
2.098048e+00 
2.075811e+00 
2.053753e+00 
2.031880e+00 
2.010195e+00 
1.988704e+00 
1.967412e+00 
1.946323e+00 
1.925443e+00 
1.904776e+00 
1.884329e+00 
1.864106e+00 
1.844114e+00 
1.824357e+00 
1.804841e+00 
1.785574e+00 
1.766559e+00 
1.747804e+00 
1.729315e+00 
1.711099e+00 
1.693160e+00 
1.675507e+00 
1.658144e+00 
1.641080e+00 
1.624321e+00 
1.607873e+00 
1.591744e+00 
1.575939e+00 
1.560467e+00 
1.545333e+00 
1.530545e+00 
1.516110e+00 
1.502034e+00 
1.488325e+00 
1.474990e+00 
1.462034e+00 
1.449467e+00 
1.437293e+00 
1.425520e+00 
1.414154e+00 
1.403202e+00 
1.392671e+00 
1.382567e+00 
1.372896e+00 
1.363664e+00 
1.354877e+00 
1.346541e+00 
1.338661e+00 
1.331242e+00 
1.324288e+00 
1.317801e+00 
1.311780e+00 
1.306220e+00 
1.301100e+00 
1.296386e+00 
1.292006e+00 
1.287862e+00 
1.283841e+00 
1.279869e+00 
1.276031e+00 
1.272449e+00 
1.269218e+00 
1.266399e+00 
1.264023e+00 
1.262106e+00 
1.260658e+00 
1.259680e+00 
1.259176e+00 
1.259146e+00 
1.259588e+00 
1.260502e+00 
1.261887e+00 
1.263741e+00 
1.266061e+00 
1.268847e+00 
1.272094e+00 
1.275800e+00 
1.279963e+00 
1.284578e+00 
1.289642e+00 
1.295152e+00 
1.301104e+00 
1.307492e+00 
1.314314e+00 
1.321565e+00 
1.329239e+00 
1.337332e+00 
1.345840e+00 
1.354757e+00 
1.364078e+00 
1.373799e+00 
1.383913e+00 
1.394415e+00 
1.405300e+00 
1.416563e+00 
1.428198e+00 
1.440200e+00 
1.452563e+00 
1.465281e+00 
1.478349e+00 
1.491762e+00 
1.505513e+00 
1.519598e+00 
1.534010e+00 
1.548746e+00 
1.563798e+00 
1.579161e+00 
1.594831e+00 
1.610802e+00 
1.627068e+00 
1.643625e+00 
2.479781e+00 
2.454895e+00 
2.430128e+00 
2.405482e+00 
2.380959e+00 
2.356562e+00 
2.332296e+00 
2.308162e+00 
2.284165e+00 
2.260307e+00 
2.236593e+00 
2.213025e+00 
2.189609e+00 
2.166346e+00 
2.143242e+00 
2.120300e+00 
2.097524e+00 
2.074920e+00 
2.052490e+00 
2.030240e+00 
2.008174e+00 
1.986297e+00 
1.964614e+00 
1.943130e+00 
1.921850e+00 
1.900778e+00 
1.879921e+00 
1.859284e+00 
1.838872e+00 
1.818691e+00 
1.798747e+00 
1.779045e+00 
1.759592e+00 
1.740394e+00 
1.721456e+00 
1.702785e+00 
1.684387e+00 
1.666270e+00 
1.648438e+00 
1.630900e+00 
1.613661e+00 
1.596729e+00 
1.580109e+00 
1.563810e+00 
1.547837e+00 
1.532198e+00 
1.516900e+00 
1.501950e+00 
1.487355e+00 
1.473121e+00 
1.459257e+00 
1.445768e+00 
1.432662e+00 
1.419947e+00 
1.407628e+00 
1.395713e+00 
1.384209e+00 
1.373122e+00 
1.362459e+00 
1.352227e+00 
1.342432e+00 
1.333080e+00 
1.324178e+00 
1.315732e+00 
1.307746e+00 
1.300227e+00 
1.293178e+00 
1.286603e+00 
1.280502e+00 
1.274871e+00 
1.269695e+00 
1.264942e+00 
1.260548e+00 
1.256415e+00 
1.252428e+00 
1.248493e+00 
1.244668e+00 
1.241080e+00 
1.237837e+00 
1.235004e+00 
1.232616e+00 
1.230692e+00 
1.229241e+00 
1.228267e+00 
1.227772e+00 
1.227757e+00 
1.228221e+00 
1.229163e+00 
1.230582e+00 
1.232476e+00 
1.234843e+00 
1.237681e+00 
1.240988e+00 
1.244759e+00 
1.248992e+00 
1.253683e+00 
1.258830e+00 
1.264427e+00 
1.270471e+00 
1.276958e+00 
1.283883e+00 
1.291241e+00 
1.299028e+00 
1.307238e+00 
1.315867e+00 
1.324910e+00 
1.334360e+00 
1.344213e+00 
1.354464e+00 
1.365105e+00 
1.376133e+00 
1.387541e+00 
1.399324e+00 
1.411475e+00 
1.423990e+00 
1.436862e+00 
1.450085e+00 
1.463655e+00 
1.477564e+00 
1.491808e+00 
1.506380e+00 
1.521275e+00 
1.536488e+00 
1.552012e+00 
1.567842e+00 
1.583973e+00 
1.600399e+00 
1.617116e+00 
2.459764e+00 
2.434708e+00 
2.409769e+00 
2.384950e+00 
2.360253e+00 
2.335682e+00 
2.311239e+00 
2.286929e+00 
2.262754e+00 
2.238719e+00 
2.214826e+00 
2.191079e+00 
2.167483e+00 
2.144040e+00 
2.120756e+00 
2.097633e+00 
2.074678e+00 
2.051892e+00 
2.029282e+00 
2.006852e+00 
1.984606e+00 
1.962549e+00 
1.940687e+00 
1.919023e+00 
1.897564e+00 
1.876314e+00 
1.855278e+00 
1.834463e+00 
1.813874e+00 
1.793516e+00 
1.773396e+00 
1.753518e+00 
1.733890e+00 
1.714517e+00 
1.695405e+00 
1.676561e+00 
1.657991e+00 
1.639701e+00 
1.621699e+00 
1.603990e+00 
1.586581e+00 
1.569479e+00 
1.552692e+00 
1.536225e+00 
1.520087e+00 
1.504283e+00 
1.488821e+00 
1.473708e+00 
1.458952e+00 
1.444559e+00 
1.430536e+00 
1.416892e+00 
1.403632e+00 
1.390765e+00 
1.378297e+00 
1.366235e+00 
1.354588e+00 
1.343360e+00 
1.332560e+00 
1.322195e+00 
1.312270e+00 
1.302793e+00 
1.293770e+00 
1.285207e+00 
1.277110e+00 
1.269485e+00 
1.262336e+00 
1.255668e+00 
1.249482e+00 
1.243774e+00 
1.238535e+00 
1.233733e+00 
1.229310e+00 
1.225170e+00 
1.221196e+00 
1.217284e+00 
1.213461e+00 
1.209863e+00 
1.206600e+00 
1.203746e+00 
1.201340e+00 
1.199401e+00 
1.197940e+00 
1.196963e+00 
1.196471e+00 
1.196466e+00 
1.196946e+00 
1.197912e+00 
1.199361e+00 
1.201292e+00 
1.203703e+00 
1.206592e+00 
1.209955e+00 
1.213789e+00 
1.218092e+00 
1.222860e+00 
1.228088e+00 
1.233774e+00 
1.239912e+00 
1.246498e+00 
1.253528e+00 
1.260996e+00 
1.268898e+00 
1.277229e+00 
1.285983e+00 
1.295155e+00 
1.304739e+00 
1.314730e+00 
1.325121e+00 
1.335908e+00 
1.347084e+00 
1.358644e+00 
1.370581e+00 
1.382890e+00 
1.395564e+00 
1.408597e+00 
1.421985e+00 
1.435719e+00 
1.449796e+00 
1.464208e+00 
1.478949e+00 
1.494015e+00 
1.509398e+00 
1.525094e+00 
1.541096e+00 
1.557398e+00 
1.573996e+00 
1.590884e+00 
2.439781e+00 
2.414563e+00 
2.389462e+00 
2.364479e+00 
2.339618e+00 
2.314882e+00 
2.290275e+00 
2.265800e+00 
2.241459e+00 
2.217258e+00 
2.193199e+00 
2.169285e+00 
2.145522e+00 
2.121913e+00 
2.098461e+00 
2.075172e+00 
2.052048e+00 
2.029095e+00 
2.006318e+00 
1.983720e+00 
1.961306e+00 
1.939081e+00 
1.917050e+00 
1.895219e+00 
1.873591e+00 
1.852173e+00 
1.830969e+00 
1.809985e+00 
1.789227e+00 
1.768700e+00 
1.748410e+00 
1.728363e+00 
1.708565e+00 
1.689022e+00 
1.669740e+00 
1.650726e+00 
1.631985e+00 
1.613525e+00 
1.595351e+00 
1.577471e+00 
1.559892e+00 
1.542619e+00 
1.525661e+00 
1.509024e+00 
1.492715e+00 
1.476741e+00 
1.461110e+00 
1.445829e+00 
1.430905e+00 
1.416346e+00 
1.402159e+00 
1.388351e+00 
1.374930e+00 
1.361903e+00 
1.349277e+00 
1.337061e+00 
1.325261e+00 
1.313885e+00 
1.302940e+00 
1.292432e+00 
1.282370e+00 
1.272759e+00 
1.263607e+00 
1.254920e+00 
1.246705e+00 
1.238967e+00 
1.231711e+00 
1.224943e+00 
1.218664e+00 
1.212873e+00 
1.207561e+00 
1.202699e+00 
1.198233e+00 
1.194070e+00 
1.190089e+00 
1.186190e+00 
1.182365e+00 
1.178751e+00 
1.175465e+00 
1.172586e+00 
1.170157e+00 
1.168200e+00 
1.166727e+00 
1.165743e+00 
1.165253e+00 
1.165256e+00 
1.165752e+00 
1.166740e+00 
1.168220e+00 
1.170189e+00 
1.172645e+00 
1.175585e+00 
1.179007e+00 
1.182907e+00 
1.187282e+00 
1.192128e+00 
1.197442e+00 
1.203218e+00 
1.209454e+00 
1.216143e+00 
1.223281e+00 
1.230864e+00 
1.238885e+00 
1.247340e+00 
1.256222e+00 
1.265527e+00 
1.275248e+00 
1.285380e+00 
1.295917e+00 
1.306853e+00 
1.318181e+00 
1.329896e+00 
1.341992e+00 
1.354461e+00 
1.367299e+00 
1.380498e+00 
1.394054e+00 
1.407958e+00 
1.422206e+00 
1.436791e+00 
1.451708e+00 
1.466949e+00 
1.482509e+00 
1.498382e+00 
1.514562e+00 
1.531043e+00 
1.547820e+00 
1.564886e+00 
2.419944e+00 
2.394577e+00 
2.369325e+00 
2.344192e+00 
2.319181e+00 
2.294294e+00 
2.269535e+00 
2.244907e+00 
2.220414e+00 
2.196060e+00 
2.171847e+00 
2.147780e+00 
2.123862e+00 
2.100098e+00 
2.076491e+00 
2.053045e+00 
2.029765e+00 
2.006655e+00 
1.983720e+00 
1.960963e+00 
1.938390e+00 
1.916005e+00 
1.893814e+00 
1.871820e+00 
1.850030e+00 
1.828448e+00 
1.807080e+00 
1.785931e+00 
1.765006e+00 
1.744312e+00 
1.723853e+00 
1.703637e+00 
1.683668e+00 
1.663954e+00 
1.644499e+00 
1.625311e+00 
1.606396e+00 
1.587760e+00 
1.569411e+00 
1.551354e+00 
1.533597e+00 
1.516146e+00 
1.499010e+00 
1.482194e+00 
1.465707e+00 
1.449555e+00 
1.433746e+00 
1.418288e+00 
1.403187e+00 
1.388452e+00 
1.374091e+00 
1.360110e+00 
1.346518e+00 
1.333322e+00 
1.320531e+00 
1.308151e+00 
1.296190e+00 
1.284657e+00 
1.273558e+00 
1.262901e+00 
1.252693e+00 
1.242942e+00 
1.233654e+00 
1.224836e+00 
1.216496e+00 
1.208639e+00 
1.201271e+00 
1.194397e+00 
1.188020e+00 
1.182139e+00 
1.176747e+00 
1.171817e+00 
1.167296e+00 
1.163096e+00 
1.159097e+00 
1.155207e+00 
1.151388e+00 
1.147762e+00 
1.144455e+00 
1.141552e+00 
1.139100e+00 
1.137125e+00 
1.135641e+00 
1.134653e+00 
1.134166e+00 
1.134180e+00 
1.134694e+00 
1.135709e+00 
1.137223e+00 
1.139232e+00 
1.141737e+00 
1.144733e+00 
1.148217e+00 
1.152187e+00 
1.156639e+00 
1.161569e+00 
1.166972e+00 
1.172844e+00 
1.179182e+00 
1.185979e+00 
1.193230e+00 
1.200931e+00 
1.209076e+00 
1.217659e+00 
1.226675e+00 
1.236118e+00 
1.245981e+00 
1.256259e+00 
1.266945e+00 
1.278034e+00 
1.289519e+00 
1.301393e+00 
1.313650e+00 
1.326284e+00 
1.339289e+00 
1.352657e+00 
1.366383e+00 
1.380461e+00 
1.394883e+00 
1.409644e+00 
1.424737e+00 
1.440156e+00 
1.455894e+00 
1.471947e+00 
1.488307e+00 
1.504969e+00 
1.521926e+00 
1.539173e+00 
2.400395e+00 
2.374892e+00 
2.349503e+00 
2.324231e+00 
2.299081e+00 
2.274054e+00 
2.249155e+00 
2.224386e+00 
2.199751e+00 
2.175253e+00 
2.150896e+00 
2.126684e+00 
2.102620e+00 
2.078709e+00 
2.054953e+00 
2.031358e+00 
2.007927e+00 
1.984664e+00 
1.961575e+00 
1.938663e+00 
1.915933e+00 
1.893390e+00 
1.871039e+00 
1.848884e+00 
1.826931e+00 
1.805184e+00 
1.783650e+00 
1.762332e+00 
1.741238e+00 
1.720372e+00 
1.699741e+00 
1.679350e+00 
1.659205e+00 
1.639312e+00 
1.619678e+00 
1.600309e+00 
1.581212e+00 
1.562393e+00 
1.543859e+00 
1.525617e+00 
1.507675e+00 
1.490038e+00 
1.472714e+00 
1.455711e+00 
1.439037e+00 
1.422698e+00 
1.406703e+00 
1.391058e+00 
1.375773e+00 
1.360854e+00 
1.346311e+00 
1.332149e+00 
1.318379e+00 
1.305007e+00 
1.292042e+00 
1.279492e+00 
1.267364e+00 
1.255667e+00 
1.244408e+00 
1.233595e+00 
1.223236e+00 
1.213339e+00 
1.203910e+00 
1.194957e+00 
1.186486e+00 
1.178505e+00 
1.171020e+00 
1.164036e+00 
1.157557e+00 
1.151582e+00 
1.146103e+00 
1.141098e+00 
1.136514e+00 
1.132269e+00 
1.128246e+00 
1.124356e+00 
1.120552e+00 
1.116915e+00 
1.113585e+00 
1.110655e+00 
1.108179e+00 
1.106183e+00 
1.104684e+00 
1.103690e+00 
1.103202e+00 
1.103224e+00 
1.103754e+00 
1.104792e+00 
1.106336e+00 
1.108385e+00 
1.110935e+00 
1.113985e+00 
1.117531e+00 
1.121569e+00 
1.126097e+00 
1.131109e+00 
1.136603e+00 
1.142572e+00 
1.149013e+00 
1.155920e+00 
1.163288e+00 
1.171111e+00 
1.179384e+00 
1.188102e+00 
1.197257e+00 
1.206844e+00 
1.216856e+00 
1.227288e+00 
1.238132e+00 
1.249382e+00 
1.261032e+00 
1.273075e+00 
1.285504e+00 
1.298313e+00 
1.311494e+00 
1.325042e+00 
1.338949e+00 
1.353209e+00 
1.367815e+00 
1.382761e+00 
1.398039e+00 
1.413645e+00 
1.429571e+00 
1.445811e+00 
1.462358e+00 
1.479207e+00 
1.496352e+00 
1.513786e+00 
2.381270e+00 
2.355638e+00 
2.330120e+00 
2.304719e+00 
2.279437e+00 
2.254277e+00 
2.229244e+00 
2.204339e+00 
2.179567e+00 
2.154930e+00 
2.130433e+00 
2.106079e+00 
2.081871e+00 
2.057814e+00 
2.033911e+00 
2.010166e+00 
1.986584e+00 
1.963168e+00 
1.939924e+00 
1.916854e+00 
1.893965e+00 
1.871261e+00 
1.848746e+00 
1.826425e+00 
1.804304e+00 
1.782387e+00 
1.760680e+00 
1.739188e+00 
1.717918e+00 
1.696874e+00 
1.676062e+00 
1.655488e+00 
1.635159e+00 
1.615081e+00 
1.595260e+00 
1.575702e+00 
1.556415e+00 
1.537404e+00 
1.518678e+00 
1.500243e+00 
1.482106e+00 
1.464274e+00 
1.446756e+00 
1.429558e+00 
1.412688e+00 
1.396154e+00 
1.379964e+00 
1.364127e+00 
1.348649e+00 
1.333539e+00 
1.318805e+00 
1.304456e+00 
1.290499e+00 
1.276943e+00 
1.263797e+00 
1.251068e+00 
1.238765e+00 
1.226896e+00 
1.215469e+00 
1.204493e+00 
1.193975e+00 
1.183922e+00 
1.174344e+00 
1.165247e+00 
1.156639e+00 
1.148526e+00 
1.140916e+00 
1.133813e+00 
1.127223e+00 
1.121146e+00 
1.115574e+00 
1.110484e+00 
1.105828e+00 
1.101529e+00 
1.097472e+00 
1.093562e+00 
1.089737e+00 
1.086070e+00 
1.082701e+00 
1.079729e+00 
1.077209e+00 
1.075175e+00 
1.073643e+00 
1.072623e+00 
1.072117e+00 
1.072127e+00 
1.072655e+00 
1.073698e+00 
1.075256e+00 
1.077327e+00 
1.079908e+00 
1.082997e+00 
1.086591e+00 
1.090686e+00 
1.095278e+00 
1.100364e+00 
1.105940e+00 
1.112000e+00 
1.118539e+00 
1.125553e+00 
1.133036e+00 
1.140982e+00 
1.149385e+00 
1.158240e+00 
1.167539e+00 
1.177277e+00 
1.187447e+00 
1.198043e+00 
1.209056e+00 
1.220482e+00 
1.232312e+00 
1.244539e+00 
1.257157e+00 
1.270158e+00 
1.283536e+00 
1.297283e+00 
1.311392e+00 
1.325857e+00 
1.340669e+00 
1.355823e+00 
1.371311e+00 
1.387127e+00 
1.403263e+00 
1.419714e+00 
1.436472e+00 
1.453531e+00 
1.470885e+00 
1.488528e+00 
2.362662e+00 
2.336906e+00 
2.311261e+00 
2.285732e+00 
2.260320e+00 
2.235029e+00 
2.209861e+00 
2.184821e+00 
2.159911e+00 
2.135134e+00 
2.110495e+00 
2.085996e+00 
2.061642e+00 
2.037436e+00 
2.013382e+00 
1.989483e+00 
1.965745e+00 
1.942171e+00 
1.918766e+00 
1.895533e+00 
1.872478e+00 
1.849605e+00 
1.826919e+00 
1.804425e+00 
1.782128e+00 
1.760033e+00 
1.738146e+00 
1.716472e+00 
1.695016e+00 
1.673785e+00 
1.652784e+00 
1.632019e+00 
1.611497e+00 
1.591223e+00 
1.571205e+00 
1.551449e+00 
1.531962e+00 
1.512750e+00 
1.493821e+00 
1.475182e+00 
1.456840e+00 
1.438803e+00 
1.421078e+00 
1.403674e+00 
1.386598e+00 
1.369857e+00 
1.353461e+00 
1.337416e+00 
1.321733e+00 
1.306418e+00 
1.291480e+00 
1.276928e+00 
1.262771e+00 
1.249016e+00 
1.235673e+00 
1.222750e+00 
1.210255e+00 
1.198198e+00 
1.186586e+00 
1.175429e+00 
1.164735e+00 
1.154511e+00 
1.144766e+00 
1.135509e+00 
1.126746e+00 
1.118486e+00 
1.110735e+00 
1.103499e+00 
1.096784e+00 
1.090591e+00 
1.084912e+00 
1.079725e+00 
1.074985e+00 
1.070616e+00 
1.066496e+00 
1.062511e+00 
1.058608e+00 
1.054874e+00 
1.051434e+00 
1.048387e+00 
1.045794e+00 
1.043690e+00 
1.042095e+00 
1.041018e+00 
1.040465e+00 
1.040436e+00 
1.040934e+00 
1.041957e+00 
1.043504e+00 
1.045574e+00 
1.048165e+00 
1.051273e+00 
1.054896e+00 
1.059031e+00 
1.063673e+00 
1.068820e+00 
1.074465e+00 
1.080605e+00 
1.087234e+00 
1.094348e+00 
1.101940e+00 
1.110005e+00 
1.118536e+00 
1.127527e+00 
1.136972e+00 
1.146863e+00 
1.157195e+00 
1.167960e+00 
1.179151e+00 
1.190761e+00 
1.202782e+00 
1.215207e+00 
1.228029e+00 
1.241240e+00 
1.254832e+00 
1.268799e+00 
1.283132e+00 
1.297825e+00 
1.312869e+00 
1.328257e+00 
1.343982e+00 
1.360037e+00 
1.376415e+00 
1.393107e+00 
1.410109e+00 
1.427412e+00 
1.445010e+00 
1.462896e+00 
2.344605e+00 
2.318722e+00 
2.292948e+00 
2.267287e+00 
2.241741e+00 
2.216314e+00 
2.191008e+00 
2.165826e+00 
2.140773e+00 
2.115850e+00 
2.091062e+00 
2.066412e+00 
2.041904e+00 
2.017541e+00 
1.993327e+00 
1.969266e+00 
1.945363e+00 
1.921621e+00 
1.898045e+00 
1.874639e+00 
1.851408e+00 
1.828356e+00 
1.805488e+00 
1.782809e+00 
1.760325e+00 
1.738040e+00 
1.715960e+00 
1.694091e+00 
1.672437e+00 
1.651005e+00 
1.629801e+00 
1.608831e+00 
1.588101e+00 
1.567618e+00 
1.547388e+00 
1.527418e+00 
1.507714e+00 
1.488284e+00 
1.469136e+00 
1.450275e+00 
1.431711e+00 
1.413450e+00 
1.395500e+00 
1.377869e+00 
1.360566e+00 
1.343598e+00 
1.326974e+00 
1.310701e+00 
1.294790e+00 
1.279247e+00 
1.264082e+00 
1.249305e+00 
1.234923e+00 
1.220945e+00 
1.207381e+00 
1.194239e+00 
1.181529e+00 
1.169260e+00 
1.157440e+00 
1.146079e+00 
1.135185e+00 
1.124767e+00 
1.114835e+00 
1.105395e+00 
1.096458e+00 
1.088030e+00 
1.080120e+00 
1.072734e+00 
1.065877e+00 
1.059552e+00 
1.053752e+00 
1.048454e+00 
1.043617e+00 
1.039160e+00 
1.034942e+00 
1.030830e+00 
1.026821e+00 
1.022987e+00 
1.019447e+00 
1.016300e+00 
1.013608e+00 
1.011412e+00 
1.009731e+00 
1.008578e+00 
1.007959e+00 
1.007875e+00 
1.008327e+00 
1.009316e+00 
1.010840e+00 
1.012898e+00 
1.015487e+00 
1.018606e+00 
1.022250e+00 
1.026417e+00 
1.031102e+00 
1.036302e+00 
1.042012e+00 
1.048227e+00 
1.054941e+00 
1.062149e+00 
1.069845e+00 
1.078024e+00 
1.086678e+00 
1.095802e+00 
1.105388e+00 
1.115430e+00 
1.125920e+00 
1.136852e+00 
1.148217e+00 
1.160009e+00 
1.172220e+00 
1.184842e+00 
1.197868e+00 
1.211289e+00 
1.225099e+00 
1.239288e+00 
1.253850e+00 
1.268776e+00 
1.284060e+00 
1.299692e+00 
1.315665e+00 
1.331972e+00 
1.348605e+00 
1.365557e+00 
1.382819e+00 
1.400386e+00 
1.418249e+00 
1.436402e+00 
2.327040e+00 
2.301021e+00 
2.275109e+00 
2.249307e+00 
2.223617e+00 
2.198043e+00 
2.172587e+00 
2.147253e+00 
2.122044e+00 
2.096964e+00 
2.072014e+00 
2.047200e+00 
2.022524e+00 
1.997991e+00 
1.973603e+00 
1.949366e+00 
1.925283e+00 
1.901358e+00 
1.877596e+00 
1.854001e+00 
1.830577e+00 
1.807330e+00 
1.784263e+00 
1.761383e+00 
1.738694e+00 
1.716201e+00 
1.693911e+00 
1.671827e+00 
1.649957e+00 
1.628306e+00 
1.606879e+00 
1.585684e+00 
1.564726e+00 
1.544013e+00 
1.523550e+00 
1.503345e+00 
1.483404e+00 
1.463735e+00 
1.444345e+00 
1.425241e+00 
1.406432e+00 
1.387925e+00 
1.369728e+00 
1.351848e+00 
1.334296e+00 
1.317078e+00 
1.300203e+00 
1.283680e+00 
1.267518e+00 
1.251726e+00 
1.236313e+00 
1.221288e+00 
1.206660e+00 
1.192439e+00 
1.178633e+00 
1.165254e+00 
1.152309e+00 
1.139809e+00 
1.127763e+00 
1.116181e+00 
1.105071e+00 
1.094444e+00 
1.084308e+00 
1.074673e+00 
1.065548e+00 
1.056940e+00 
1.048859e+00 
1.041312e+00 
1.034304e+00 
1.027839e+00 
1.021909e+00 
1.016496e+00 
1.011555e+00 
1.007003e+00 
1.002681e+00 
9.984629e-01 
9.943541e-01 
9.904182e-01 
9.867725e-01 
9.835201e-01 
9.807296e-01 
9.784422e-01 
9.766806e-01 
9.754570e-01 
9.747776e-01 
9.746452e-01 
9.750608e-01 
9.760243e-01 
9.775345e-01 
9.795897e-01 
9.821877e-01 
9.853256e-01 
9.890001e-01 
9.932075e-01 
9.979437e-01 
1.003204e+00 
1.008984e+00 
1.015278e+00 
1.022080e+00 
1.029385e+00 
1.037186e+00 
1.045478e+00 
1.054254e+00 
1.063506e+00 
1.073229e+00 
1.083414e+00 
1.094055e+00 
1.105144e+00 
1.116674e+00 
1.128637e+00 
1.141025e+00 
1.153831e+00 
1.167046e+00 
1.180664e+00 
1.194675e+00 
1.209072e+00 
1.223847e+00 
1.238992e+00 
1.254499e+00 
1.270360e+00 
1.286567e+00 
1.303113e+00 
1.319989e+00 
1.337187e+00 
1.354700e+00 
1.372521e+00 
1.390642e+00 
1.409055e+00 
2.309762e+00 
2.283593e+00 
2.257527e+00 
2.231569e+00 
2.205720e+00 
2.179983e+00 
2.154362e+00 
2.128859e+00 
2.103479e+00 
2.078223e+00 
2.053096e+00 
2.028100e+00 
2.003240e+00 
1.978519e+00 
1.953941e+00 