# vtk DataFile Version 2.0 
Quadtree Mesh 
ASCII 
DATASET UNSTRUCTURED_GRID 
POINTS 16384 double 
-1.000000e+00 -1.000000e+00 0.000000e+00
-9.842520e-01 -1.000000e+00 0.000000e+00
-9.685039e-01 -1.000000e+00 0.000000e+00
-9.527559e-01 -1.000000e+00 0.000000e+00
-9.370079e-01 -1.000000e+00 0.000000e+00
-9.212598e-01 -1.000000e+00 0.000000e+00
-9.055118e-01 -1.000000e+00 0.000000e+00
-8.897638e-01 -1.000000e+00 0.000000e+00
-8.740157e-01 -1.000000e+00 0.000000e+00
-8.582677e-01 -1.000000e+00 0.000000e+00
-8.425197e-01 -1.000000e+00 0.000000e+00
-8.267717e-01 -1.000000e+00 0.000000e+00
-8.110236e-01 -1.000000e+00 0.000000e+00
-7.952756e-01 -1.000000e+00 0.000000e+00
-7.795276e-01 -1.000000e+00 0.000000e+00
-7.637795e-01 -1.000000e+00 0.000000e+00
-7.480315e-01 -1.000000e+00 0.000000e+00
-7.322835e-01 -1.000000e+00 0.000000e+00
-7.165354e-01 -1.000000e+00 0.000000e+00
-7.007874e-01 -1.000000e+00 0.000000e+00
-6.850394e-01 -1.000000e+00 0.000000e+00
-6.692913e-01 -1.000000e+00 0.000000e+00
-6.535433e-01 -1.000000e+00 0.000000e+00
-6.377953e-01 -1.000000e+00 0.000000e+00
-6.220472e-01 -1.000000e+00 0.000000e+00
-6.062992e-01 -1.000000e+00 0.000000e+00
-5.905512e-01 -1.000000e+00 0.000000e+00
-5.748031e-01 -1.000000e+00 0.000000e+00
-5.590551e-01 -1.000000e+00 0.000000e+00
-5.433071e-01 -1.000000e+00 0.000000e+00
-5.275591e-01 -1.000000e+00 0.000000e+00
-5.118110e-01 -1.000000e+00 0.000000e+00
-4.960630e-01 -1.000000e+00 0.000000e+00
-4.803150e-01 -1.000000e+00 0.000000e+00
-4.645669e-01 -1.000000e+00 0.000000e+00
-4.488189e-01 -1.000000e+00 0.000000e+00
-4.330709e-01 -1.000000e+00 0.000000e+00
-4.173228e-01 -1.000000e+00 0.000000e+00
-4.015748e-01 -1.000000e+00 0.000000e+00
-3.858268e-01 -1.000000e+00 0.000000e+00
-3.700787e-01 -1.000000e+00 0.000000e+00
-3.543307e-01 -1.000000e+00 0.000000e+00
-3.385827e-01 -1.000000e+00 0.000000e+00
-3.228346e-01 -1.000000e+00 0.000000e+00
-3.070866e-01 -1.000000e+00 0.000000e+00
-2.913386e-01 -1.000000e+00 0.000000e+00
-2.755906e-01 -1.000000e+00 0.000000e+00
-2.598425e-01 -1.000000e+00 0.000000e+00
-2.440945e-01 -1.000000e+00 0.000000e+00
-2.283465e-01 -1.000000e+00 0.000000e+00
-2.125984e-01 -1.000000e+00 0.000000e+00
-1.968504e-01 -1.000000e+00 0.000000e+00
-1.811024e-01 -1.000000e+00 0.000000e+00
-1.653543e-01 -1.000000e+00 0.000000e+00
-1.496063e-01 -1.000000e+00 0.000000e+00
-1.338583e-01 -1.000000e+00 0.000000e+00
-1.181102e-01 -1.000000e+00 0.000000e+00
-1.023622e-01 -1.000000e+00 0.000000e+00
-8.661417e-02 -1.000000e+00 0.000000e+00
-7.086614e-02 -1.000000e+00 0.000000e+00
-5.511811e-02 -1.000000e+00 0.000000e+00
-3.937008e-02 -1.000000e+00 0.000000e+00
-2.362205e-02 -1.000000e+00 0.000000e+00
-7.874016e-03 -1.000000e+00 0.000000e+00
7.874016e-03 -1.000000e+00 0.000000e+00
2.362205e-02 -1.000000e+00 0.000000e+00
3.937008e-02 -1.000000e+00 0.000000e+00
5.511811e-02 -1.000000e+00 0.000000e+00
7.086614e-02 -1.000000e+00 0.000000e+00
8.661417e-02 -1.000000e+00 0.000000e+00
1.023622e-01 -1.000000e+00 0.000000e+00
1.181102e-01 -1.000000e+00 0.000000e+00
1.338583e-01 -1.000000e+00 0.000000e+00
1.496063e-01 -1.000000e+00 0.000000e+00
1.653543e-01 -1.000000e+00 0.000000e+00
1.811024e-01 -1.000000e+00 0.000000e+00
1.968504e-01 -1.000000e+00 0.000000e+00
2.125984e-01 -1.000000e+00 0.000000e+00
2.283465e-01 -1.000000e+00 0.000000e+00
2.440945e-01 -1.000000e+00 0.000000e+00
2.598425e-01 -1.000000e+00 0.000000e+00
2.755906e-01 -1.000000e+00 0.000000e+00
2.913386e-01 -1.000000e+00 0.000000e+00
3.070866e-01 -1.000000e+00 0.000000e+00
3.228346e-01 -1.000000e+00 0.000000e+00
3.385827e-01 -1.000000e+00 0.000000e+00
3.543307e-01 -1.000000e+00 0.000000e+00
3.700787e-01 -1.000000e+00 0.000000e+00
3.858268e-01 -1.000000e+00 0.000000e+00
4.015748e-01 -1.000000e+00 0.000000e+00
4.173228e-01 -1.000000e+00 0.000000e+00
4.330709e-01 -1.000000e+00 0.000000e+00
4.488189e-01 -1.000000e+00 0.000000e+00
4.645669e-01 -1.000000e+00 0.000000e+00
4.803150e-01 -1.000000e+00 0.000000e+00
4.960630e-01 -1.000000e+00 0.000000e+00
5.118110e-01 -1.000000e+00 0.000000e+00
5.275591e-01 -1.000000e+00 0.000000e+00
5.433071e-01 -1.000000e+00 0.000000e+00
5.590551e-01 -1.000000e+00 0.000000e+00
5.748031e-01 -1.000000e+00 0.000000e+00
5.905512e-01 -1.000000e+00 0.000000e+00
6.062992e-01 -1.000000e+00 0.000000e+00
6.220472e-01 -1.000000e+00 0.000000e+00
6.377953e-01 -1.000000e+00 0.000000e+00
6.535433e-01 -1.000000e+00 0.000000e+00
6.692913e-01 -1.000000e+00 0.000000e+00
6.850394e-01 -1.000000e+00 0.000000e+00
7.007874e-01 -1.000000e+00 0.000000e+00
7.165354e-01 -1.000000e+00 0.000000e+00
7.322835e-01 -1.000000e+00 0.000000e+00
7.480315e-01 -1.000000e+00 0.000000e+00
7.637795e-01 -1.000000e+00 0.000000e+00
7.795276e-01 -1.000000e+00 0.000000e+00
7.952756e-01 -1.000000e+00 0.000000e+00
8.110236e-01 -1.000000e+00 0.000000e+00
8.267717e-01 -1.000000e+00 0.000000e+00
8.425197e-01 -1.000000e+00 0.000000e+00
8.582677e-01 -1.000000e+00 0.000000e+00
8.740157e-01 -1.000000e+00 0.000000e+00
8.897638e-01 -1.000000e+00 0.000000e+00
9.055118e-01 -1.000000e+00 0.000000e+00
9.212598e-01 -1.000000e+00 0.000000e+00
9.370079e-01 -1.000000e+00 0.000000e+00
9.527559e-01 -1.000000e+00 0.000000e+00
9.685039e-01 -1.000000e+00 0.000000e+00
9.842520e-01 -1.000000e+00 0.000000e+00
1.000000e+00 -1.000000e+00 0.000000e+00
-1.000000e+00 -9.842520e-01 0.000000e+00
-9.842520e-01 -9.842520e-01 0.000000e+00
-9.685039e-01 -9.842520e-01 0.000000e+00
-9.527559e-01 -9.842520e-01 0.000000e+00
-9.370079e-01 -9.842520e-01 0.000000e+00
-9.212598e-01 -9.842520e-01 0.000000e+00
-9.055118e-01 -9.842520e-01 0.000000e+00
-8.897638e-01 -9.842520e-01 0.000000e+00
-8.740157e-01 -9.842520e-01 0.000000e+00
-8.582677e-01 -9.842520e-01 0.000000e+00
-8.425197e-01 -9.842520e-01 0.000000e+00
-8.267717e-01 -9.842520e-01 0.000000e+00
-8.110236e-01 -9.842520e-01 0.000000e+00
-7.952756e-01 -9.842520e-01 0.000000e+00
-7.795276e-01 -9.842520e-01 0.000000e+00
-7.637795e-01 -9.842520e-01 0.000000e+00
-7.480315e-01 -9.842520e-01 0.000000e+00
-7.322835e-01 -9.842520e-01 0.000000e+00
-7.165354e-01 -9.842520e-01 0.000000e+00
-7.007874e-01 -9.842520e-01 0.000000e+00
-6.850394e-01 -9.842520e-01 0.000000e+00
-6.692913e-01 -9.842520e-01 0.000000e+00
-6.535433e-01 -9.842520e-01 0.000000e+00
-6.377953e-01 -9.842520e-01 0.000000e+00
-6.220472e-01 -9.842520e-01 0.000000e+00
-6.062992e-01 -9.842520e-01 0.000000e+00
-5.905512e-01 -9.842520e-01 0.000000e+00
-5.748031e-01 -9.842520e-01 0.000000e+00
-5.590551e-01 -9.842520e-01 0.000000e+00
-5.433071e-01 -9.842520e-01 0.000000e+00
-5.275591e-01 -9.842520e-01 0.000000e+00
-5.118110e-01 -9.842520e-01 0.000000e+00
-4.960630e-01 -9.842520e-01 0.000000e+00
-4.803150e-01 -9.842520e-01 0.000000e+00
-4.645669e-01 -9.842520e-01 0.000000e+00
-4.488189e-01 -9.842520e-01 0.000000e+00
-4.330709e-01 -9.842520e-01 0.000000e+00
-4.173228e-01 -9.842520e-01 0.000000e+00
-4.015748e-01 -9.842520e-01 0.000000e+00
-3.858268e-01 -9.842520e-01 0.000000e+00
-3.700787e-01 -9.842520e-01 0.000000e+00
-3.543307e-01 -9.842520e-01 0.000000e+00
-3.385827e-01 -9.842520e-01 0.000000e+00
-3.228346e-01 -9.842520e-01 0.000000e+00
-3.070866e-01 -9.842520e-01 0.000000e+00
-2.913386e-01 -9.842520e-01 0.000000e+00
-2.755906e-01 -9.842520e-01 0.000000e+00
-2.598425e-01 -9.842520e-01 0.000000e+00
-2.440945e-01 -9.842520e-01 0.000000e+00
-2.283465e-01 -9.842520e-01 0.000000e+00
-2.125984e-01 -9.842520e-01 0.000000e+00
-1.968504e-01 -9.842520e-01 0.000000e+00
-1.811024e-01 -9.842520e-01 0.000000e+00
-1.653543e-01 -9.842520e-01 0.000000e+00
-1.496063e-01 -9.842520e-01 0.000000e+00
-1.338583e-01 -9.842520e-01 0.000000e+00
-1.181102e-01 -9.842520e-01 0.000000e+00
-1.023622e-01 -9.842520e-01 0.000000e+00
-8.661417e-02 -9.842520e-01 0.000000e+00
-7.086614e-02 -9.842520e-01 0.000000e+00
-5.511811e-02 -9.842520e-01 0.000000e+00
-3.937008e-02 -9.842520e-01 0.000000e+00
-2.362205e-02 -9.842520e-01 0.000000e+00
-7.874016e-03 -9.842520e-01 0.000000e+00
7.874016e-03 -9.842520e-01 0.000000e+00
2.362205e-02 -9.842520e-01 0.000000e+00
3.937008e-02 -9.842520e-01 0.000000e+00
5.511811e-02 -9.842520e-01 0.000000e+00
7.086614e-02 -9.842520e-01 0.000000e+00
8.661417e-02 -9.842520e-01 0.000000e+00
1.023622e-01 -9.842520e-01 0.000000e+00
1.181102e-01 -9.842520e-01 0.000000e+00
1.338583e-01 -9.842520e-01 0.000000e+00
1.496063e-01 -9.842520e-01 0.000000e+00
1.653543e-01 -9.842520e-01 0.000000e+00
1.811024e-01 -9.842520e-01 0.000000e+00
1.968504e-01 -9.842520e-01 0.000000e+00
2.125984e-01 -9.842520e-01 0.000000e+00
2.283465e-01 -9.842520e-01 0.000000e+00
2.440945e-01 -9.842520e-01 0.000000e+00
2.598425e-01 -9.842520e-01 0.000000e+00
2.755906e-01 -9.842520e-01 0.000000e+00
2.913386e-01 -9.842520e-01 0.000000e+00
3.070866e-01 -9.842520e-01 0.000000e+00
3.228346e-01 -9.842520e-01 0.000000e+00
3.385827e-01 -9.842520e-01 0.000000e+00
3.543307e-01 -9.842520e-01 0.000000e+00
3.700787e-01 -9.842520e-01 0.000000e+00
3.858268e-01 -9.842520e-01 0.000000e+00
4.015748e-01 -9.842520e-01 0.000000e+00
4.173228e-01 -9.842520e-01 0.000000e+00
4.330709e-01 -9.842520e-01 0.000000e+00
4.488189e-01 -9.842520e-01 0.000000e+00
4.645669e-01 -9.842520e-01 0.000000e+00
4.803150e-01 -9.842520e-01 0.000000e+00
4.960630e-01 -9.842520e-01 0.000000e+00
5.118110e-01 -9.842520e-01 0.000000e+00
5.275591e-01 -9.842520e-01 0.000000e+00
5.433071e-01 -9.842520e-01 0.000000e+00
5.590551e-01 -9.842520e-01 0.000000e+00
5.748031e-01 -9.842520e-01 0.000000e+00
5.905512e-01 -9.842520e-01 0.000000e+00
6.062992e-01 -9.842520e-01 0.000000e+00
6.220472e-01 -9.842520e-01 0.000000e+00
6.377953e-01 -9.842520e-01 0.000000e+00
6.535433e-01 -9.842520e-01 0.000000e+00
6.692913e-01 -9.842520e-01 0.000000e+00
6.850394e-01 -9.842520e-01 0.000000e+00
7.007874e-01 -9.842520e-01 0.000000e+00
7.165354e-01 -9.842520e-01 0.000000e+00
7.322835e-01 -9.842520e-01 0.000000e+00
7.480315e-01 -9.842520e-01 0.000000e+00
7.637795e-01 -9.842520e-01 0.000000e+00
7.795276e-01 -9.842520e-01 0.000000e+00
7.952756e-01 -9.842520e-01 0.000000e+00
8.110236e-01 -9.842520e-01 0.000000e+00
[...]
POINT_DATA 16384 
SCALARS concentration double 1 
LOOKUP_TABLE default 
2.699916e+00 
2.675391e+00 
2.650990e+00 
2.626715e+00 
2.602570e+00 
2.578557e+00 
2.554680e+00 
2.530942e+00 
2.507347e+00 
2.483897e+00 
2.460596e+00 
2.437447e+00 
2.414455e+00 
2.391623e+00 
2.368954e+00 
2.346453e+00 
2.324124e+00 
2.301970e+00 
2.279996e+00 
2.258206e+00 
2.236605e+00 
2.215197e+00 
2.193986e+00 
2.172978e+00 
2.152177e+00 
2.131588e+00 
2.111215e+00 
2.091065e+00 
2.071142e+00 
2.051451e+00 
2.031999e+00 
2.012790e+00 
1.993830e+00 
1.975124e+00 
1.956680e+00 
1.938501e+00 
1.920595e+00 
1.902968e+00 
1.885625e+00 
1.868573e+00 
1.851819e+00 
1.835368e+00 
1.819226e+00 
1.803402e+00 
1.787900e+00 
1.772728e+00 
1.757893e+00 
1.743400e+00 
1.729257e+00 
1.715470e+00 
1.702047e+00 
1.688993e+00 
1.676316e+00 
1.664021e+00 
1.652116e+00 
1.640607e+00 
1.629501e+00 
1.618804e+00 
1.608522e+00 
1.598661e+00 
1.589227e+00 
1.580227e+00 
1.571665e+00 
1.563548e+00 
1.555880e+00 
1.548668e+00 
1.541915e+00 
1.535626e+00 
1.529806e+00 
1.524457e+00 
1.519578e+00 
1.515148e+00 
1.511080e+00 
1.507164e+00 
1.503535e+00 
1.500319e+00 
1.497565e+00 
1.495287e+00 
1.493491e+00 
1.492177e+00 
1.491348e+00 
1.491003e+00 
1.491143e+00 
1.491767e+00 
1.492875e+00 
1.494465e+00 
1.496537e+00 
1.499088e+00 
1.502116e+00 
1.505620e+00 
1.509596e+00 
1.514041e+00 
1.518953e+00 
1.524329e+00 
1.530163e+00 
1.536452e+00 
1.543193e+00 
1.550380e+00 
1.558009e+00 
1.566075e+00 
1.574573e+00 
1.583498e+00 
1.592844e+00 
1.602606e+00 
1.612779e+00 
1.623356e+00 
1.634332e+00 
1.645700e+00 
1.657456e+00 
1.669592e+00 
1.682102e+00 
1.694981e+00 
1.708222e+00 
1.721820e+00 
1.735766e+00 
1.750057e+00 
1.764684e+00 
1.779642e+00 
1.794925e+00 
1.810527e+00 
1.826441e+00 
1.842662e+00 
1.859182e+00 
1.875997e+00 
1.893101e+00 
1.910486e+00 
1.928149e+00 
1.946082e+00 
2.680337e+00 
2.655660e+00 
2.631105e+00 
2.606675e+00 
2.582373e+00 
2.558203e+00 
2.534166e+00 
2.510267e+00 
2.486508e+00 
2.462893e+00 
2.439426e+00 
2.416110e+00 
2.392949e+00 
2.369946e+00 
2.347105e+00 
2.324430e+00 
2.301926e+00 
2.279596e+00 
2.257444e+00 
2.235475e+00 
2.213693e+00 
2.192103e+00 
2.170710e+00 
2.149518e+00 
2.128531e+00 
2.107756e+00 
2.087196e+00 
2.066858e+00 
2.046746e+00 
2.026866e+00 
2.007223e+00 
1.987823e+00 
1.968672e+00 
1.949775e+00 
1.931138e+00 
1.912768e+00 
1.894670e+00 
1.876851e+00 
1.859317e+00 
1.842074e+00 
1.825129e+00 
1.808488e+00 
1.792158e+00 
1.776145e+00 
1.760457e+00 
1.745100e+00 
1.730081e+00 
1.715407e+00 
1.701085e+00 
1.687121e+00 
1.673522e+00 
1.660296e+00 
1.647449e+00 
1.634989e+00 
1.622921e+00 
1.611253e+00 
1.599992e+00 
1.589143e+00 
1.578714e+00 
1.568711e+00 
1.559140e+00 
1.550008e+00 
1.541319e+00 
1.533080e+00 
1.525297e+00 
1.517975e+00 
1.511118e+00 
1.504733e+00 
1.498822e+00 
1.493390e+00 
1.488436e+00 
1.483941e+00 
1.479826e+00 
1.475898e+00 
1.472231e+00 
1.468971e+00 
1.466177e+00 
1.463864e+00 
1.462040e+00 
1.460707e+00 
1.459866e+00 
1.459516e+00 
1.459659e+00 
1.460294e+00 
1.461420e+00 
1.463036e+00 
1.465140e+00 
1.467731e+00 
1.470807e+00 
1.474365e+00 
1.478403e+00 
1.482917e+00 
1.487905e+00 
1.493362e+00 
1.499284e+00 
1.505668e+00 
1.512509e+00 
1.519803e+00 
1.527544e+00 
1.535727e+00 
1.544348e+00 
1.553401e+00 
1.562880e+00 
1.572779e+00 
1.583093e+00 
1.593816e+00 
1.604941e+00 
1.616463e+00 
1.628376e+00 
1.640672e+00 
1.653346e+00 
1.666391e+00 
1.679800e+00 
1.693569e+00 
1.707689e+00 
1.722154e+00 
1.736959e+00 
1.752096e+00 
1.767560e+00 
1.783344e+00 
1.799441e+00 
1.815845e+00 
1.832551e+00 
1.849551e+00 
1.866841e+00 
1.884413e+00 
1.902263e+00 
1.920383e+00 
2.660950e+00 
2.636121e+00 
2.611412e+00 
2.586827e+00 
2.562368e+00 
2.538038e+00 
2.513841e+00 
2.489779e+00 
2.465857e+00 
2.442077e+00 
2.418443e+00 
2.394958e+00 
2.371626e+00 
2.348452e+00 
2.325438e+00 
2.302588e+00 
2.279907e+00 
2.257399e+00 
2.235068e+00 
2.212918e+00 
2.190955e+00 
2.169181e+00 
2.147603e+00 
2.126225e+00 
2.105051e+00 
2.084087e+00 
2.063339e+00 
2.042810e+00 
2.022507e+00 
2.002435e+00 
1.982599e+00 
1.963006e+00 
1.943661e+00 
1.924569e+00 
1.905738e+00 
1.887173e+00 
1.868880e+00 
1.850866e+00 
1.833137e+00 
1.815700e+00 
1.798560e+00 
1.781726e+00 
1.765204e+00 
1.749000e+00 
1.733122e+00 
1.717576e+00 
1.702369e+00 
1.687510e+00 
1.673003e+00 
1.658858e+00 
1.645081e+00 
1.631678e+00 
1.618658e+00 
1.606028e+00 
1.593793e+00 
1.581962e+00 
1.570541e+00 
1.559538e+00 
1.548958e+00 
1.538809e+00 
1.529097e+00 
1.519828e+00 
1.511009e+00 
1.502645e+00 
1.494743e+00 
1.487307e+00 
1.480344e+00 
1.473859e+00 
1.467855e+00 
1.462337e+00 
1.457305e+00 
1.452742e+00 
1.448579e+00 
1.444639e+00 
1.440933e+00 
1.437628e+00 
1.434791e+00 
1.432443e+00 
1.430591e+00 
1.429238e+00 
1.428384e+00 
1.428030e+00 
1.428176e+00 
1.428821e+00 
1.429966e+00 
1.431608e+00 
1.433746e+00 
1.436379e+00 
1.439504e+00 
1.443119e+00 
1.447220e+00 
1.451805e+00 
1.456870e+00 
1.462412e+00 
1.468425e+00 
1.474907e+00 
1.481851e+00 
1.489254e+00 
1.497111e+00 
1.505415e+00 
1.514162e+00 
1.523346e+00 
1.532961e+00 
1.543001e+00 
1.553460e+00 
1.564333e+00 
1.575612e+00 
1.587291e+00 
1.599364e+00 
1.611824e+00 
1.624665e+00 
1.637879e+00 
1.651462e+00 
1.665405e+00 
1.679702e+00 
1.694347e+00 
1.709333e+00 
1.724653e+00 
1.740300e+00 
1.756269e+00 
1.772553e+00 
1.789145e+00 
1.806039e+00 
1.823228e+00 
1.840707e+00 
1.858469e+00 
1.876509e+00 
1.894819e+00 
2.641759e+00 
2.616777e+00 
2.591914e+00 
2.567173e+00 
2.542556e+00 
2.518067e+00 
2.493709e+00 
2.469484e+00 
2.445397e+00 
2.421451e+00 
2.397649e+00 
2.373995e+00 
2.350492e+00 
2.327145e+00 
2.303956e+00 
2.280930e+00 
2.258072e+00 
2.235385e+00 
2.212873e+00 
2.190541e+00 
2.168393e+00 
2.146435e+00 
2.124670e+00 
2.103104e+00 
2.081741e+00 
2.060587e+00 
2.039647e+00 
2.018926e+00 
1.998429e+00 
1.978163e+00 
1.958132e+00 
1.938342e+00 
1.918801e+00 
1.899512e+00 
1.880483e+00 
1.861720e+00 
1.843229e+00 
1.825017e+00 
1.807090e+00 
1.789454e+00 
1.772118e+00 
1.755087e+00 
1.738368e+00 
1.721969e+00 
1.705897e+00 
1.690158e+00 
1.674760e+00 
1.659711e+00 
1.645017e+00 
1.630686e+00 
1.616726e+00 
1.603143e+00 
1.589945e+00 
1.577140e+00 
1.564735e+00 
1.552736e+00 
1.541152e+00 
1.529989e+00 
1.519254e+00 
1.508955e+00 
1.499097e+00 
1.489689e+00 
1.480735e+00 
1.472243e+00 
1.464218e+00 
1.456666e+00 
1.449593e+00 
1.443004e+00 
1.436904e+00 
1.431297e+00 
1.426184e+00 
1.421551e+00 
1.417338e+00 
1.413385e+00 
1.409639e+00 
1.406288e+00 
1.403407e+00 
1.401022e+00 
1.399141e+00 
1.397766e+00 
1.396899e+00 
1.396540e+00 
1.396689e+00 
1.397345e+00 
1.398509e+00 
1.400178e+00 
1.402351e+00 
1.405027e+00 
1.408202e+00 
1.411875e+00 
1.416041e+00 
1.420699e+00 
1.425844e+00 
1.431472e+00 
1.437579e+00 
1.444161e+00 
1.451212e+00 
1.458728e+00 
1.466702e+00 
1.475131e+00 
1.484008e+00 
1.493327e+00 
1.503082e+00 
1.513267e+00 
1.523875e+00 
1.534901e+00 
1.546337e+00 
1.558178e+00 
1.570416e+00 
1.583044e+00 
1.596056e+00 
1.609445e+00 
1.623204e+00 
1.637326e+00 
1.651805e+00 
1.666633e+00 
1.681804e+00 
1.697310e+00 
1.713146e+00 
1.729304e+00 
1.745778e+00 
1.762562e+00 
1.779647e+00 
1.797029e+00 
1.814701e+00 
1.832656e+00 
1.850889e+00 
1.869393e+00 
2.622767e+00 
2.597632e+00 
2.572615e+00 
2.547717e+00 
2.522942e+00 
2.498293e+00 
2.473773e+00 
2.449386e+00 
2.425133e+00 
2.401020e+00 
2.377050e+00 
2.353225e+00 
2.329550e+00 
2.306029e+00 
2.282665e+00 
2.259462e+00 
2.236424e+00 
2.213556e+00 
2.190863e+00 
2.168347e+00 
2.146014e+00 
2.123869e+00 
2.101916e+00 
2.080160e+00 
2.058606e+00 
2.037260e+00 
2.016126e+00 
1.995210e+00 
1.974518e+00 
1.954054e+00 
1.933825e+00 
1.913837e+00 
1.894096e+00 
1.874607e+00 
1.855378e+00 
1.836413e+00 
1.817721e+00 
1.799307e+00 
1.781178e+00 
1.763342e+00 
1.745804e+00 
1.728572e+00 
1.711654e+00 
1.695055e+00 
1.678785e+00 
1.662849e+00 
1.647256e+00 
1.632012e+00 
1.617127e+00 
1.602606e+00 
1.588458e+00 
1.574690e+00 
1.561310e+00 
1.548326e+00 
1.535744e+00 
1.523574e+00 
1.511821e+00 
1.500494e+00 
1.489600e+00 
1.479146e+00 
1.469139e+00 
1.459586e+00 
1.450493e+00 
1.441868e+00 
1.433716e+00 
1.426044e+00 
1.418857e+00 
1.412162e+00 
1.405962e+00 
1.400264e+00 
1.395067e+00 
1.390361e+00 
1.386095e+00 
1.382123e+00 
1.378331e+00 
1.374929e+00 
1.372001e+00 
1.369576e+00 
1.367663e+00 
1.366264e+00 
1.365381e+00 
1.365014e+00 
1.365163e+00 
1.365829e+00 
1.367010e+00 
1.368705e+00 
1.370912e+00 
1.373629e+00 
1.376854e+00 
1.380585e+00 
1.384817e+00 
1.389548e+00 
1.394774e+00 
1.400490e+00 
1.406692e+00 
1.413376e+00 
1.420536e+00 
1.428167e+00 
1.436263e+00 
1.444819e+00 
1.453829e+00 
1.463287e+00 
1.473186e+00 
1.483520e+00 
1.494283e+00 
1.505467e+00 
1.517066e+00 
1.529073e+00 
1.541481e+00 
1.554283e+00 
1.567472e+00 
1.581041e+00 
1.594983e+00 
1.609290e+00 
1.623956e+00 
1.638973e+00 
1.654335e+00 
1.670034e+00 
1.686064e+00 
1.702417e+00 
1.719087e+00 
1.736067e+00 
1.753350e+00 
1.770929e+00 
1.788799e+00 
1.806953e+00 
1.825383e+00 
1.844085e+00 
2.603978e+00 
2.578690e+00 
2.553517e+00 
2.528463e+00 
2.503529e+00 
2.478720e+00 
2.454038e+00 
2.429486e+00 
2.405069e+00 
2.380788e+00 
2.356648e+00 
2.332652e+00 
2.308804e+00 
2.285108e+00 
2.261567e+00 
2.238185e+00 
2.214968e+00 
2.191918e+00 
2.169041e+00 
2.146340e+00 
2.123820e+00 
2.101486e+00 
2.079343e+00 
2.057395e+00 
2.035649e+00 
2.014108e+00 
1.992778e+00 
1.971664e+00 
1.950773e+00 
1.930110e+00 
1.909681e+00 
1.889491e+00 
1.869547e+00 
1.849855e+00 
1.830421e+00 
1.811252e+00 
1.792354e+00 
1.773735e+00 
1.755401e+00 
1.737358e+00 
1.719615e+00 
1.702178e+00 
1.685055e+00 
1.668253e+00 
1.651779e+00 
1.635641e+00 
1.619847e+00 
1.604404e+00 
1.589321e+00 
1.574604e+00 
1.560263e+00 
1.546304e+00 
1.532736e+00 
1.519566e+00 
1.506803e+00 
1.494454e+00 
1.482527e+00 
1.471030e+00 
1.459970e+00 
1.449354e+00 
1.439191e+00 
1.429488e+00 
1.420250e+00 
1.411486e+00 
1.403202e+00 
1.395404e+00 
1.388098e+00 
1.381291e+00 
1.374987e+00 
1.369191e+00 
1.363906e+00 
1.359122e+00 
1.354796e+00 
1.350781e+00 
1.346931e+00 
1.343468e+00 
1.340485e+00 
1.338011e+00 
1.336056e+00 
1.334625e+00 
1.333717e+00 
1.333335e+00 
1.333478e+00 
1.334145e+00 
1.335336e+00 
1.337050e+00 
1.339285e+00 
1.342038e+00 
1.345308e+00 
1.349092e+00 
1.353386e+00 
1.358187e+00 
1.363491e+00 
1.369294e+00 
1.375590e+00 
1.382375e+00 
1.389644e+00 
1.397391e+00 
1.405610e+00 
1.414297e+00 
1.423443e+00 
1.433043e+00 
1.443091e+00 
1.453579e+00 
1.464501e+00 
1.475850e+00 
1.487619e+00 
1.499799e+00 
1.512386e+00 
1.525370e+00 
1.538744e+00 
1.552502e+00 
1.566635e+00 
1.581137e+00 
1.596000e+00 
1.611216e+00 
1.626779e+00 
1.642681e+00 
1.658914e+00 
1.675473e+00 
1.692349e+00 
1.709536e+00 
1.727026e+00 
1.744814e+00 
1.762891e+00 
1.781253e+00 
1.799891e+00 
1.818800e+00 
2.585393e+00 
2.559951e+00 
2.534623e+00 
2.509411e+00 
2.484319e+00 
2.459349e+00 
2.434504e+00 
2.409787e+00 
2.385203e+00 
2.360753e+00 
2.336443e+00 
2.312275e+00 
2.288252e+00 
2.264380e+00 
2.240661e+00 
2.217099e+00 
2.193700e+00 
2.170466e+00 
2.147403e+00 
2.124515e+00 
2.101806e+00 
2.079281e+00 
2.056945e+00 
2.034803e+00 
2.012860e+00 
1.991121e+00 
1.969592e+00 
1.948278e+00 
1.927184e+00 
1.906317e+00 
1.885683e+00 
1.865287e+00 
1.845135e+00 
1.825235e+00 
1.805592e+00 
1.786213e+00 
1.767104e+00 
1.748274e+00 
1.729728e+00 
1.711473e+00 
1.693518e+00 
1.675868e+00 
1.658533e+00 
1.641519e+00 
1.624834e+00 
1.608486e+00 
1.592483e+00 
1.576832e+00 
1.561542e+00 
1.546621e+00 
1.532077e+00 
1.517918e+00 
1.504152e+00 
1.490787e+00 
1.477832e+00 
1.465295e+00 
1.453184e+00 
1.441506e+00 
1.430271e+00 
1.419485e+00 
1.409156e+00 
1.399292e+00 
1.389900e+00 
1.380988e+00 
1.372563e+00 
1.364630e+00 
1.357197e+00 
1.350270e+00 
1.343855e+00 
1.337955e+00 
1.332574e+00 
1.327704e+00 
1.323299e+00 
1.319192e+00 
1.315259e+00 
1.311718e+00 
1.308663e+00 
1.306125e+00 
1.304114e+00 
1.302635e+00 
1.301689e+00 
1.301276e+00 
1.301398e+00 
1.302054e+00 
1.303244e+00 
1.304965e+00 
1.307216e+00 
1.309996e+00 
1.313302e+00 
1.317131e+00 
1.321479e+00 
1.326343e+00 
1.331719e+00 
1.337602e+00 
1.343988e+00 
1.350872e+00 
1.358247e+00 
1.366109e+00 
1.374451e+00 
1.383267e+00 
1.392551e+00 
1.402296e+00 
1.412495e+00 
1.423142e+00 
1.434228e+00 
1.445747e+00 
1.457691e+00 
1.470053e+00 
1.482824e+00 
1.495999e+00 
1.509568e+00 
1.523524e+00 
1.537860e+00 
1.552568e+00 
1.567639e+00 
1.583067e+00 
1.598844e+00 
1.614961e+00 
1.631413e+00 
1.648191e+00 
1.665287e+00 
1.682696e+00 
1.700408e+00 
1.718419e+00 
1.736719e+00 
1.755304e+00 
1.774165e+00 
1.793296e+00 
2.567003e+00 
2.541407e+00 
2.515922e+00 
2.490552e+00 
2.465299e+00 
2.440166e+00 
2.415156e+00 
2.390273e+00 
2.365520e+00 
2.340900e+00 
2.316416e+00 
2.292073e+00 
2.267874e+00 
2.243822e+00 
2.219922e+00 
2.196177e+00 
2.172592e+00 
2.149171e+00 
2.125918e+00 
2.102838e+00 
2.079935e+00 
2.057215e+00 
2.034681e+00 
2.012339e+00 
1.990194e+00 
1.968252e+00 
1.946517e+00 
1.924995e+00 
1.903693e+00 
1.882615e+00 
1.861768e+00 
1.841158e+00 
1.820791e+00 
1.800673e+00 
1.780812e+00 
1.761213e+00 
1.741884e+00 
1.722832e+00 
1.704063e+00 
1.685586e+00 
1.667406e+00 
1.649533e+00 
1.631974e+00 
1.614736e+00 
1.597828e+00 
1.581257e+00 
1.565031e+00 
1.549159e+00 
1.533650e+00 
1.518510e+00 
1.503750e+00 
1.489376e+00 
1.475399e+00 
1.461826e+00 
1.448665e+00 
1.435926e+00 
1.423617e+00 
1.411746e+00 
1.400321e+00 
1.389352e+00 
1.378845e+00 
1.368808e+00 
1.359251e+00 
1.350179e+00 
1.341601e+00 
1.333523e+00 
1.325953e+00 
1.318897e+00 
1.312360e+00 
1.306349e+00 
1.300862e+00 
1.295891e+00 
1.291380e+00 
1.287139e+00 
1.283100e+00 
1.279465e+00 
1.276323e+00 
1.273706e+00 
1.271625e+00 
1.270085e+00 
1.269087e+00 
1.268634e+00 
1.268724e+00 
1.269359e+00 
1.270537e+00 
1.272257e+00 
1.274517e+00 
1.277316e+00 
1.280651e+00 
1.284518e+00 
1.288915e+00 
1.293838e+00 
1.299282e+00 
1.305242e+00 
1.311714e+00 
1.318693e+00 
1.326172e+00 
1.334146e+00 
1.342608e+00 
1.351553e+00 
1.360973e+00 
1.370861e+00 
1.381211e+00 
1.392015e+00 
1.403265e+00 
1.414954e+00 
1.427074e+00 
1.439618e+00 
1.452577e+00 
1.465944e+00 
1.479710e+00 
1.493868e+00 
1.508410e+00 
1.523327e+00 
1.538612e+00 
1.554257e+00 
1.570253e+00 
1.586594e+00 
1.603271e+00 
1.620276e+00 
1.637602e+00 
1.655241e+00 
1.673186e+00 
1.691430e+00 
1.709965e+00 
1.728784e+00 
1.747881e+00 
1.767248e+00 
2.548762e+00 
2.523008e+00 
2.497364e+00 
2.471831e+00 
2.446414e+00 
2.421114e+00 
2.395936e+00 
2.370881e+00 
2.345955e+00 
2.321159e+00 
2.296497e+00 
2.271973e+00 
2.247591e+00 
2.223354e+00 
2.199266e+00 
2.175331e+00 
2.151553e+00 
2.127937e+00 
2.104487e+00 
2.081207e+00 
2.058102e+00 
2.035176e+00 
2.012435e+00 
1.989884e+00 
1.967528e+00 
1.945371e+00 
1.923420e+00 
1.901680e+00 
1.880157e+00 
1.858856e+00 
1.837785e+00 
1.816948e+00 
1.796353e+00 
1.776005e+00 
1.755912e+00 
1.736081e+00 
1.716517e+00 
1.697230e+00 
1.678225e+00 
1.659510e+00 
1.641093e+00 
1.622982e+00 
1.605184e+00 
1.587708e+00 
1.570562e+00 
1.553753e+00 
1.537291e+00 
1.521184e+00 
1.505441e+00 
1.490069e+00 
1.475079e+00 
1.460478e+00 
1.446276e+00 
1.432482e+00 
1.419104e+00 
1.406151e+00 
1.393632e+00 
1.381556e+00 
1.369932e+00 
1.358769e+00 
1.348074e+00 
1.337856e+00 
1.328123e+00 
1.318884e+00 
1.310146e+00 
1.301916e+00 
1.294202e+00 
1.287011e+00 
1.280348e+00 
1.274217e+00 
1.268619e+00 
1.263537e+00 
1.258908e+00 
1.254542e+00 
1.250404e+00 
1.246679e+00 
1.243452e+00 
1.240756e+00 
1.238606e+00 
1.237007e+00 
1.235961e+00 
1.235469e+00 
1.235532e+00 
1.236149e+00 
1.237320e+00 
1.239044e+00 
1.241318e+00 
1.244141e+00 
1.247509e+00 
1.251420e+00 
1.255870e+00 
1.260854e+00 
1.266369e+00 
1.272409e+00 
1.278969e+00 
1.286044e+00 
1.293628e+00 
1.301714e+00 
1.310296e+00 
1.319368e+00 
1.328921e+00 
1.338950e+00 
1.349446e+00 
1.360402e+00 
1.371810e+00 
1.383663e+00 
1.395953e+00 
1.408671e+00 
1.421809e+00 
1.435360e+00 
1.449314e+00 
1.463665e+00 
1.478403e+00 
1.493520e+00 
1.509009e+00 
1.524861e+00 
1.541067e+00 
1.557621e+00 
1.574513e+00 
1.591737e+00 
1.609284e+00 
1.627146e+00 
1.645316e+00 
1.663786e+00 
1.682550e+00 
1.701599e+00 
1.720926e+00 
1.740525e+00 
2.530542e+00 
2.504623e+00 
2.478811e+00 
2.453109e+00 
2.427520e+00 
2.402046e+00 
2.376691e+00 
2.351457e+00 
2.326348e+00 
2.301367e+00 
2.276518e+00 
2.251805e+00 
2.227230e+00 
2.202798e+00 
2.178512e+00 
2.154377e+00 
2.130396e+00 
2.106574e+00 
2.082916e+00 
2.059425e+00 
2.036107e+00 
2.012966e+00 
1.990007e+00 
1.967235e+00 
1.944655e+00 
1.922273e+00 
1.900094e+00 
1.878125e+00 
1.856369e+00 
1.834835e+00 
1.813528e+00 
1.792453e+00 
1.771619e+00 
1.751031e+00 
1.730696e+00 
1.710621e+00 
1.690814e+00 
1.671281e+00 
1.652030e+00 
1.633070e+00 
1.614407e+00 
1.596049e+00 
1.578006e+00 
1.560285e+00 
1.542894e+00 
1.525842e+00 
1.509138e+00 
1.492791e+00 
1.476809e+00 
1.461202e+00 
1.445979e+00 
1.431148e+00 
1.416719e+00 
1.402702e+00 
1.389105e+00 
1.375938e+00 
1.363209e+00 
1.350929e+00 
1.339106e+00 
1.327749e+00 
1.316868e+00 
1.306469e+00 
1.296564e+00 
1.287159e+00 
1.278262e+00 
1.269882e+00 
1.262026e+00 
1.254701e+00 
1.247913e+00 
1.241665e+00 
1.235956e+00 
1.230770e+00 
1.226044e+00 
1.221628e+00 
1.217442e+00 
1.213655e+00 
1.210364e+00 
1.207609e+00 
1.205408e+00 
1.203768e+00 
1.202692e+00 
1.202180e+00 
1.202234e+00 
1.202852e+00 
1.204033e+00 
1.205777e+00 
1.208082e+00 
1.210944e+00 
1.214361e+00 
1.218329e+00 
1.222845e+00 
1.227904e+00 
1.233501e+00 
1.239631e+00 
1.246288e+00 
1.253467e+00 
1.261162e+00 
1.269365e+00 
1.278070e+00 
1.287270e+00 
1.296958e+00 
1.307126e+00 
1.317766e+00 
1.328871e+00 
1.340433e+00 
1.352443e+00 
1.364894e+00 
1.377776e+00 
1.391083e+00 
1.404805e+00 
1.418935e+00 
1.433463e+00 
1.448381e+00 
1.463682e+00 
1.479356e+00 
1.495395e+00 
1.511792e+00 
1.528538e+00 
1.545624e+00 
1.563044e+00 
1.580788e+00 
1.598850e+00 
1.617221e+00 
1.635894e+00 
1.654861e+00 
1.674115e+00 
1.693649e+00 
1.713456e+00 
2.512115e+00 
2.486024e+00 
2.460037e+00 
2.434158e+00 
2.408389e+00 
2.382732e+00 
2.357192e+00 
2.331771e+00 
2.306473e+00 
2.281300e+00 
2.256257e+00 
2.231346e+00 
2.206572e+00 
2.181938e+00 
2.157448e+00 
2.133106e+00 
2.108917e+00 
2.084884e+00 
2.061012e+00 
2.037306e+00 
2.013769e+00 
1.990408e+00 
1.967227e+00 
1.944231e+00 
1.921426e+00 
1.898817e+00 
1.876409e+00 
1.854208e+00 
1.832220e+00 
1.810452e+00 
1.788910e+00 
1.767600e+00 
1.746528e+00 
1.725702e+00 
1.705128e+00 
1.684814e+00 
1.664768e+00 
1.644995e+00 
1.625505e+00 
1.606305e+00 
1.587403e+00 
1.568808e+00 
1.550527e+00 
1.532569e+00 
1.514943e+00 
1.497658e+00 
1.480723e+00 
1.464146e+00 
1.447938e+00 
1.432106e+00 
1.416661e+00 
1.401612e+00 
1.386968e+00 
1.372740e+00 
1.358936e+00 
1.345566e+00 
1.332639e+00 
1.320166e+00 
1.308155e+00 
1.296616e+00 
1.285558e+00 
1.274990e+00 
1.264921e+00 
1.255359e+00 
1.246313e+00 
1.237792e+00 
1.229801e+00 
1.222350e+00 
1.215444e+00 
1.209087e+00 
1.203277e+00 
1.198003e+00 
1.193220e+00 
1.188828e+00 
1.184660e+00 
1.180850e+00 
1.177520e+00 
1.174728e+00 
1.172499e+00 
1.170839e+00 
1.169753e+00 
1.169241e+00 
1.169304e+00 
1.169941e+00 
1.171152e+00 
1.172934e+00 
1.175285e+00 
1.178203e+00 
1.181684e+00 
1.185724e+00 
1.190320e+00 
1.195466e+00 
1.201158e+00 
1.207390e+00 
1.214155e+00 
1.221449e+00 
1.229264e+00 
1.237593e+00 
1.246430e+00 
1.255766e+00 
1.265594e+00 
1.275907e+00 
1.286696e+00 
1.297953e+00 
1.309671e+00 
1.321839e+00 
1.334451e+00 
1.347498e+00 
1.360971e+00 
1.374861e+00 
1.389160e+00 
1.403859e+00 
1.418951e+00 
1.434425e+00 
1.450274e+00 
1.466490e+00 
1.483063e+00 
1.499986e+00 
1.517251e+00 
1.534849e+00 
1.552772e+00 
1.571013e+00 
1.589564e+00 
1.608416e+00 
1.627564e+00 
1.646998e+00 
1.666712e+00 
1.686699e+00 
2.493300e+00 
2.467037e+00 
2.440877e+00 
2.414822e+00 
2.388875e+00 
2.363038e+00 
2.337317e+00 
2.311712e+00 
2.286228e+00 
2.260868e+00 
2.235635e+00 
2.210533e+00 
2.185565e+00 
2.160736e+00 
2.136049e+00 