# vtk DataFile Version 2.0 
Quadtree Mesh 
ASCII 
DATASET UNSTRUCTURED_GRID 
POINTS 16384 double 
-1.000000e+00 -1.000000e+00 0.000000e+00
-9.842520e-01 -1.000000e+00 0.000000e+00
-9.685039e-01 -1.000000e+00 0.000000e+00
-9.527559e-01 -1.000000e+00 0.000000e+00
-9.370079e-01 -1.000000e+00 0.000000e+00
-9.212598e-01 -1.000000e+00 0.000000e+00
-9.055118e-01 -1.000000e+00 0.000000e+00
-8.897638e-01 -1.000000e+00 0.000000e+00
-8.740157e-01 -1.000000e+00 0.000000e+00
-8.582677e-01 -1.000000e+00 0.000000e+00
-8.425197e-01 -1.000000e+00 0.000000e+00
-8.267717e-01 -1.000000e+00 0.000000e+00
-8.110236e-01 -1.000000e+00 0.000000e+00
-7.952756e-01 -1.000000e+00 0.000000e+00
-7.795276e-01 -1.000000e+00 0.000000e+00
-7.637795e-01 -1.000000e+00 0.000000e+00
-7.480315e-01 -1.000000e+00 0.000000e+00
-7.322835e-01 -1.000000e+00 0.000000e+00
-7.165354e-01 -1.000000e+00 0.000000e+00
-7.007874e-01 -1.000000e+00 0.000000e+00
-6.850394e-01 -1.000000e+00 0.000000e+00
-6.692913e-01 -1.000000e+00 0.000000e+00
-6.535433e-01 -1.000000e+00 0.000000e+00
-6.377953e-01 -1.000000e+00 0.000000e+00
-6.220472e-01 -1.000000e+00 0.000000e+00
-6.062992e-01 -1.000000e+00 0.000000e+00
-5.905512e-01 -1.000000e+00 0.000000e+00
-5.748031e-01 -1.000000e+00 0.000000e+00
-5.590551e-01 -1.000000e+00 0.000000e+00
-5.433071e-01 -1.000000e+00 0.000000e+00
-5.275591e-01 -1.000000e+00 0.000000e+00
-5.118110e-01 -1.000000e+00 0.000000e+00
-4.960630e-01 -1.000000e+00 0.000000e+00
-4.803150e-01 -1.000000e+00 0.000000e+00
-4.645669e-01 -1.000000e+00 0.000000e+00
-4.488189e-01 -1.000000e+00 0.000000e+00
-4.330709e-01 -1.000000e+00 0.000000e+00
-4.173228e-01 -1.000000e+00 0.000000e+00
-4.015748e-01 -1.000000e+00 0.000000e+00
-3.858268e-01 -1.000000e+00 0.000000e+00
-3.700787e-01 -1.000000e+00 0.000000e+00
-3.543307e-01 -1.000000e+00 0.000000e+00
-3.385827e-01 -1.000000e+00 0.000000e+00
-3.228346e-01 -1.000000e+00 0.000000e+00
-3.070866e-01 -1.000000e+00 0.000000e+00
-2.913386e-01 -1.000000e+00 0.000000e+00
-2.755906e-01 -1.000000e+00 0.000000e+00
-2.598425e-01 -1.000000e+00 0.000000e+00
-2.440945e-01 -1.000000e+00 0.000000e+00
-2.283465e-01 -1.000000e+00 0.000000e+00
-2.125984e-01 -1.000000e+00 0.000000e+00
-1.968504e-01 -1.000000e+00 0.000000e+00
-1.811024e-01 -1.000000e+00 0.000000e+00
-1.653543e-01 -1.000000e+00 0.000000e+00
-1.496063e-01 -1.000000e+00 0.000000e+00
-1.338583e-01 -1.000000e+00 0.000000e+00
-1.181102e-01 -1.000000e+00 0.000000e+00
-1.023622e-01 -1.000000e+00 0.000000e+00
-8.661417e-02 -1.000000e+00 0.000000e+00
-7.086614e-02 -1.000000e+00 0.000000e+00
-5.511811e-02 -1.000000e+00 0.000000e+00
-3.937008e-02 -1.000000e+00 0.000000e+00
-2.362205e-02 -1.000000e+00 0.000000e+00
-7.874016e-03 -1.000000e+00 0.000000e+00
7.874016e-03 -1.000000e+00 0.000000e+00
2.362205e-02 -1.000000e+00 0.000000e+00
3.937008e-02 -1.000000e+00 0.000000e+00
5.511811e-02 -1.000000e+00 0.000000e+00
7.086614e-02 -1.000000e+00 0.000000e+00
8.661417e-02 -1.000000e+00 0.000000e+00
1.023622e-01 -1.000000e+00 0.000000e+00
1.181102e-01 -1.000000e+00 0.000000e+00
1.338583e-01 -1.000000e+00 0.000000e+00
1.496063e-01 -1.000000e+00 0.000000e+00
1.653543e-01 -1.000000e+00 0.000000e+00
1.811024e-01 -1.000000e+00 0.000000e+00
1.968504e-01 -1.000000e+00 0.000000e+00
2.125984e-01 -1.000000e+00 0.000000e+00
2.283465e-01 -1.000000e+00 0.000000e+00
2.440945e-01 -1.000000e+00 0.000000e+00
2.598425e-01 -1.000000e+00 0.000000e+00
2.755906e-01 -1.000000e+00 0.000000e+00
2.913386e-01 -1.000000e+00 0.000000e+00
3.070866e-01 -1.000000e+00 0.000000e+00
3.228346e-01 -1.000000e+00 0.000000e+00
3.385827e-01 -1.000000e+00 0.000000e+00
3.543307e-01 -1.000000e+00 0.000000e+00
3.700787e-01 -1.000000e+00 0.000000e+00
3.858268e-01 -1.000000e+00 0.000000e+00
4.015748e-01 -1.000000e+00 0.000000e+00
4.173228e-01 -1.000000e+00 0.000000e+00
4.330709e-01 -1.000000e+00 0.000000e+00
4.488189e-01 -1.000000e+00 0.000000e+00
4.645669e-01 -1.000000e+00 0.000000e+00
4.803150e-01 -1.000000e+00 0.000000e+00
4.960630e-01 -1.000000e+00 0.000000e+00
5.118110e-01 -1.000000e+00 0.000000e+00
5.275591e-01 -1.000000e+00 0.000000e+00
5.433071e-01 -1.000000e+00 0.000000e+00
5.590551e-01 -1.000000e+00 0.000000e+00
5.748031e-01 -1.000000e+00 0.000000e+00
5.905512e-01 -1.000000e+00 0.000000e+00
6.062992e-01 -1.000000e+00 0.000000e+00
6.220472e-01 -1.000000e+00 0.000000e+00
6.377953e-01 -1.000000e+00 0.000000e+00
6.535433e-01 -1.000000e+00 0.000000e+00
6.692913e-01 -1.000000e+00 0.000000e+00
6.850394e-01 -1.000000e+00 0.000000e+00
7.007874e-01 -1.000000e+00 0.000000e+00
7.165354e-01 -1.000000e+00 0.000000e+00
7.322835e-01 -1.000000e+00 0.000000e+00
7.480315e-01 -1.000000e+00 0.000000e+00
7.637795e-01 -1.000000e+00 0.000000e+00
7.795276e-01 -1.000000e+00 0.000000e+00
7.952756e-01 -1.000000e+00 0.000000e+00
8.110236e-01 -1.000000e+00 0.000000e+00
8.267717e-01 -1.000000e+00 0.000000e+00
8.425197e-01 -1.000000e+00 0.000000e+00
8.582677e-01 -1.000000e+00 0.000000e+00
8.740157e-01 -1.000000e+00 0.000000e+00
8.897638e-01 -1.000000e+00 0.000000e+00
9.055118e-01 -1.000000e+00 0.000000e+00
9.212598e-01 -1.000000e+00 0.000000e+00
9.370079e-01 -1.000000e+00 0.000000e+00
9.527559e-01 -1.000000e+00 0.000000e+00
9.685039e-01 -1.000000e+00 0.000000e+00
9.842520e-01 -1.000000e+00 0.000000e+00
1.000000e+00 -1.000000e+00 0.000000e+00
-1.000000e+00 -9.842520e-01 0.000000e+00
-9.842520e-01 -9.842520e-01 0.000000e+00
-9.685039e-01 -9.842520e-01 0.000000e+00
-9.527559e-01 -9.842520e-01 0.000000e+00
-9.370079e-01 -9.842520e-01 0.000000e+00
-9.212598e-01 -9.842520e-01 0.000000e+00
-9.055118e-01 -9.842520e-01 0.000000e+00
-8.897638e-01 -9.842520e-01 0.000000e+00
-8.740157e-01 -9.842520e-01 0.000000e+00
-8.582677e-01 -9.842520e-01 0.000000e+00
-8.425197e-01 -9.842520e-01 0.000000e+00
-8.267717e-01 -9.842520e-01 0.000000e+00
-8.110236e-01 -9.842520e-01 0.000000e+00
-7.952756e-01 -9.842520e-01 0.000000e+00
-7.795276e-01 -9.842520e-01 0.000000e+00
-7.637795e-01 -9.842520e-01 0.000000e+00
-7.480315e-01 -9.842520e-01 0.000000e+00
-7.322835e-01 -9.842520e-01 0.000000e+00
-7.165354e-01 -9.842520e-01 0.000000e+00
-7.007874e-01 -9.842520e-01 0.000000e+00
-6.850394e-01 -9.842520e-01 0.000000e+00
-6.692913e-01 -9.842520e-01 0.000000e+00
-6.535433e-01 -9.842520e-01 0.000000e+00
-6.377953e-01 -9.842520e-01 0.000000e+00
-6.220472e-01 -9.842520e-01 0.000000e+00
-6.062992e-01 -9.842520e-01 0.000000e+00
-5.905512e-01 -9.842520e-01 0.000000e+00
-5.748031e-01 -9.842520e-01 0.000000e+00
-5.590551e-01 -9.842520e-01 0.000000e+00
-5.433071e-01 -9.842520e-01 0.000000e+00
-5.275591e-01 -9.842520e-01 0.000000e+00
-5.118110e-01 -9.842520e-01 0.000000e+00
-4.960630e-01 -9.842520e-01 0.000000e+00
-4.803150e-01 -9.842520e-01 0.000000e+00
-4.645669e-01 -9.842520e-01 0.000000e+00
-4.488189e-01 -9.842520e-01 0.000000e+00
-4.330709e-01 -9.842520e-01 0.000000e+00
-4.173228e-01 -9.842520e-01 0.000000e+00
-4.015748e-01 -9.842520e-01 0.000000e+00
-3.858268e-01 -9.842520e-01 0.000000e+00
-3.700787e-01 -9.842520e-01 0.000000e+00
-3.543307e-01 -9.842520e-01 0.000000e+00
-3.385827e-01 -9.842520e-01 0.000000e+00
-3.228346e-01 -9.842520e-01 0.000000e+00
-3.070866e-01 -9.842520e-01 0.000000e+00
-2.913386e-01 -9.842520e-01 0.000000e+00
-2.755906e-01 -9.842520e-01 0.000000e+00
-2.598425e-01 -9.842520e-01 0.000000e+00
-2.440945e-01 -9.842520e-01 0.000000e+00
-2.283465e-01 -9.842520e-01 0.000000e+00
-2.125984e-01 -9.842520e-01 0.000000e+00
-1.968504e-01 -9.842520e-01 0.000000e+00
-1.811024e-01 -9.842520e-01 0.000000e+00
-1.653543e-01 -9.842520e-01 0.000000e+00
-1.496063e-01 -9.842520e-01 0.000000e+00
-1.338583e-01 -9.842520e-01 0.000000e+00
-1.181102e-01 -9.842520e-01 0.000000e+00
-1.023622e-01 -9.842520e-01 0.000000e+00
-8.661417e-02 -9.842520e-01 0.000000e+00
-7.086614e-02 -9.842520e-01 0.000000e+00
-5.511811e-02 -9.842520e-01 0.000000e+00
-3.937008e-02 -9.842520e-01 0.000000e+00
-2.362205e-02 -9.842520e-01 0.000000e+00
-7.874016e-03 -9.842520e-01 0.000000e+00
7.874016e-03 -9.842520e-01 0.000000e+00
2.362205e-02 -9.842520e-01 0.000000e+00
3.937008e-02 -9.842520e-01 0.000000e+00
5.511811e-02 -9.842520e-01 0.000000e+00
7.086614e-02 -9.842520e-01 0.000000e+00
8.661417e-02 -9.842520e-01 0.000000e+00
1.023622e-01 -9.842520e-01 0.000000e+00
1.181102e-01 -9.842520e-01 0.000000e+00
1.338583e-01 -9.842520e-01 0.000000e+00
1.496063e-01 -9.842520e-01 0.000000e+00
1.653543e-01 -9.842520e-01 0.000000e+00
1.811024e-01 -9.842520e-01 0.000000e+00
1.968504e-01 -9.842520e-01 0.000000e+00
2.125984e-01 -9.842520e-01 0.000000e+00
2.283465e-01 -9.842520e-01 0.000000e+00
2.440945e-01 -9.842520e-01 0.000000e+00
2.598425e-01 -9.842520e-01 0.000000e+00
2.755906e-01 -9.842520e-01 0.000000e+00
2.913386e-01 -9.842520e-01 0.000000e+00
3.070866e-01 -9.842520e-01 0.000000e+00
3.228346e-01 -9.842520e-01 0.000000e+00
3.385827e-01 -9.842520e-01 0.000000e+00
3.543307e-01 -9.842520e-01 0.000000e+00
3.700787e-01 -9.842520e-01 0.000000e+00
3.858268e-01 -9.842520e-01 0.000000e+00
4.015748e-01 -9.842520e-01 0.000000e+00
4.173228e-01 -9.842520e-01 0.000000e+00
4.330709e-01 -9.842520e-01 0.000000e+00
4.488189e-01 -9.842520e-01 0.000000e+00
4.645669e-01 -9.842520e-01 0.000000e+00
4.803150e-01 -9.842520e-01 0.000000e+00
4.960630e-01 -9.842520e-01 0.000000e+00
5.118110e-01 -9.842520e-01 0.000000e+00
5.275591e-01 -9.842520e-01 0.000000e+00
5.433071e-01 -9.842520e-01 0.000000e+00
5.590551e-01 -9.842520e-01 0.000000e+00
5.748031e-01 -9.842520e-01 0.000000e+00
5.905512e-01 -9.842520e-01 0.000000e+00
6.062992e-01 -9.842520e-01 0.000000e+00
6.220472e-01 -9.842520e-01 0.000000e+00
6.377953e-01 -9.842520e-01 0.000000e+00
6.535433e-01 -9.842520e-01 0.000000e+00
6.692913e-01 -9.842520e-01 0.000000e+00
6.850394e-01 -9.842520e-01 0.000000e+00
7.007874e-01 -9.842520e-01 0.000000e+00
7.165354e-01 -9.842520e-01 0.000000e+00
7.322835e-01 -9.842520e-01 0.000000e+00
7.480315e-01 -9.842520e-01 0.000000e+00
7.637795e-01 -9.842520e-01 0.000000e+00
7.795276e-01 -9.842520e-01 0.000000e+00
7.952756e-01 -9.842520e-01 0.000000e+00
8.110236e-01 -9.842520e-01 0.000000e+00
[...]
POINT_DATA 16384 
SCALARS concentration double 1 
LOOKUP_TABLE default 
2.091211e+00 
2.066642e+00 
2.042190e+00 
2.017859e+00 
1.993651e+00 
1.969571e+00 
1.945622e+00 
1.921806e+00 
1.898130e+00 
1.874595e+00 
1.851209e+00 
1.827975e+00 
1.804904e+00 
1.782001e+00 
1.759273e+00 
1.736722e+00 
1.714348e+00 
1.692148e+00 
1.670124e+00 
1.648283e+00 
1.626630e+00 
1.605173e+00 
1.583919e+00 
1.562873e+00 
1.542041e+00 
1.521428e+00 
1.501038e+00 
1.480876e+00 
1.460946e+00 
1.441254e+00 
1.421804e+00 
1.402599e+00 
1.383646e+00 
1.364947e+00 
1.346506e+00 
1.328325e+00 
1.310404e+00 
1.292741e+00 
1.275336e+00 
1.258195e+00 
1.241332e+00 
1.224765e+00 
1.208510e+00 
1.192577e+00 
1.176971e+00 
1.161691e+00 
1.146737e+00 
1.132112e+00 
1.117821e+00 
1.103869e+00 
1.090265e+00 
1.077016e+00 
1.064132e+00 
1.051621e+00 
1.039494e+00 
1.027763e+00 
1.016439e+00 
1.005533e+00 
9.950577e-01 
9.850227e-01 
9.754380e-01 
9.663116e-01 
9.576500e-01 
9.494570e-01 
9.417341e-01 
9.344795e-01 
9.276881e-01 
9.213500e-01 
9.154505e-01 
9.099689e-01 
9.048782e-01 
9.001450e-01 
8.957307e-01 
8.915941e-01 
8.876943e-01 
8.839949e-01 
8.804628e-01 
8.770645e-01 
8.737675e-01 
8.705479e-01 
8.674380e-01 
8.644975e-01 
8.618055e-01 
8.594377e-01 
8.574504e-01 
8.558779e-01 
8.547377e-01 
8.540356e-01 
8.537699e-01 
8.539341e-01 
8.545194e-01 
8.555153e-01 
8.569111e-01 
8.586958e-01 
8.608585e-01 
8.633884e-01 
8.662752e-01 
8.695090e-01 
8.730799e-01 
8.769789e-01 
8.811972e-01 
8.857263e-01 
8.905585e-01 
8.956865e-01 
9.011035e-01 
9.068032e-01 
9.127802e-01 
9.190293e-01 
9.255460e-01 
9.323266e-01 
9.393677e-01 
9.466667e-01 
9.542215e-01 
9.620308e-01 
9.700935e-01 
9.784094e-01 
9.869787e-01 
9.958022e-01 
1.004881e+00 
1.014217e+00 
1.023813e+00 
1.033671e+00 
1.043794e+00 
1.054185e+00 
1.064848e+00 
1.075787e+00 
1.087006e+00 
1.098509e+00 
2.071264e+00 
2.046531e+00 
2.021915e+00 
1.997419e+00 
1.973047e+00 
1.948802e+00 
1.924688e+00 
1.900709e+00 
1.876869e+00 
1.853173e+00 
1.829627e+00 
1.806240e+00 
1.783020e+00 
1.759974e+00 
1.737106e+00 
1.714413e+00 
1.691892e+00 
1.669541e+00 
1.647364e+00 
1.625367e+00 
1.603558e+00 
1.581945e+00 
1.560535e+00 
1.539331e+00 
1.518340e+00 
1.497566e+00 
1.477012e+00 
1.456685e+00 
1.436587e+00 
1.416723e+00 
1.397099e+00 
1.377717e+00 
1.358582e+00 
1.339699e+00 
1.321069e+00 
1.302692e+00 
1.284568e+00 
1.266697e+00 
1.249083e+00 
1.231735e+00 
1.214670e+00 
1.197906e+00 
1.181456e+00 
1.165327e+00 
1.149520e+00 
1.134035e+00 
1.118875e+00 
1.104043e+00 
1.089546e+00 
1.075392e+00 
1.061590e+00 
1.048149e+00 
1.035081e+00 
1.022398e+00 
1.010113e+00 
9.982407e-01 
9.867940e-01 
9.757865e-01 
9.652310e-01 
9.551387e-01 
9.455189e-01 
9.363788e-01 
9.277232e-01 
9.195539e-01 
9.118696e-01 
9.046657e-01 
8.979337e-01 
8.916609e-01 
8.858299e-01 
8.804184e-01 
8.753990e-01 
8.707402e-01 
8.664078e-01 
8.623669e-01 
8.585844e-01 
8.550302e-01 
8.516752e-01 
8.484864e-01 
8.454285e-01 
8.424679e-01 
8.396247e-01 
8.369656e-01 
8.345767e-01 
8.325353e-01 
8.308940e-01 
8.296821e-01 
8.289113e-01 
8.285821e-01 
8.286886e-01 
8.292207e-01 
8.301669e-01 
8.315147e-01 
8.332516e-01 
8.353656e-01 
8.378447e-01 
8.406777e-01 
8.438538e-01 
8.473624e-01 
8.511938e-01 
8.553386e-01 
8.597879e-01 
8.645332e-01 
8.695668e-01 
8.748813e-01 
8.804700e-01 
8.863266e-01 
8.924456e-01 
8.988218e-01 
9.054509e-01 
9.123290e-01 
9.194527e-01 
9.268195e-01 
9.344272e-01 
9.422745e-01 
9.503603e-01 
9.586844e-01 
9.672470e-01 
9.760491e-01 
9.850921e-01 
9.943777e-01 
1.003909e+00 
1.013688e+00 
1.023718e+00 
1.034004e+00 
1.044549e+00 
1.055358e+00 
1.066436e+00 
1.077787e+00 
2.051478e+00 
2.026583e+00 
2.001804e+00 
1.977146e+00 
1.952612e+00 
1.928206e+00 
1.903931e+00 
1.879792e+00 
1.855793e+00 
1.831941e+00 
1.808244e+00 
1.784710e+00 
1.761348e+00 
1.738163e+00 
1.715153e+00 
1.692313e+00 
1.669638e+00 
1.647130e+00 
1.624792e+00 
1.602635e+00 
1.580664e+00 
1.558889e+00 
1.537314e+00 
1.515944e+00 
1.494784e+00 
1.473838e+00 
1.453111e+00 
1.432606e+00 
1.412327e+00 
1.392280e+00 
1.372469e+00 
1.352897e+00 
1.333568e+00 
1.314487e+00 
1.295653e+00 
1.277068e+00 
1.258732e+00 
1.240647e+00 
1.222821e+00 
1.205267e+00 
1.188002e+00 
1.171039e+00 
1.154389e+00 
1.138054e+00 
1.122037e+00 
1.106340e+00 
1.090967e+00 
1.075923e+00 
1.061218e+00 
1.046862e+00 
1.032865e+00 
1.019241e+00 
1.006005e+00 
9.931716e-01 
9.807572e-01 
9.687783e-01 
9.572509e-01 
9.461896e-01 
9.356076e-01 
9.255152e-01 
9.159206e-01 
9.068284e-01 
8.982405e-01 
8.901551e-01 
8.825674e-01 
8.754687e-01 
8.688467e-01 
8.626853e-01 
8.569643e-01 
8.516599e-01 
8.467451e-01 
8.421912e-01 
8.379690e-01 
8.340510e-01 
8.304123e-01 
8.270302e-01 
8.238800e-01 
8.209310e-01 
8.181458e-01 
8.154852e-01 
8.129459e-01 
8.106058e-01 
8.085594e-01 
8.068838e-01 
8.056262e-01 
8.048083e-01 
8.044356e-01 
8.045030e-01 
8.050002e-01 
8.059143e-01 
8.072312e-01 
8.089369e-01 
8.110179e-01 
8.134613e-01 
8.162548e-01 
8.193870e-01 
8.228469e-01 
8.266242e-01 
8.307091e-01 
8.350924e-01 
8.397654e-01 
8.447198e-01 
8.499480e-01 
8.554429e-01 
8.611979e-01 
8.672069e-01 
8.734643e-01 
8.799652e-01 
8.867052e-01 
8.936805e-01 
9.008876e-01 
9.083240e-01 
9.159875e-01 
9.238764e-01 
9.319899e-01 
9.403275e-01 
9.488894e-01 
9.576764e-01 
9.666898e-01 
9.759314e-01 
9.854039e-01 
9.951101e-01 
1.005054e+00 
1.015238e+00 
1.025669e+00 
1.036350e+00 
1.047286e+00 
1.058484e+00 
2.031841e+00 
2.006786e+00 
1.981848e+00 
1.957031e+00 
1.932338e+00 
1.907774e+00 
1.883341e+00 
1.859046e+00 
1.834893e+00 
1.810889e+00 
1.787045e+00 
1.763369e+00 
1.739866e+00 
1.716537e+00 
1.693377e+00 
1.670379e+00 
1.647542e+00 
1.624867e+00 
1.602363e+00 
1.580038e+00 
1.557899e+00 
1.535954e+00 
1.514207e+00 
1.492662e+00 
1.471325e+00 
1.450198e+00 
1.429287e+00 
1.408596e+00 
1.388128e+00 
1.367888e+00 
1.347880e+00 
1.328109e+00 
1.308578e+00 
1.289289e+00 
1.270245e+00 
1.251446e+00 
1.232895e+00 
1.214598e+00 
1.196564e+00 
1.178808e+00 
1.161342e+00 
1.144177e+00 
1.127320e+00 
1.110774e+00 
1.094542e+00 
1.078629e+00 
1.063041e+00 
1.047788e+00 
1.032881e+00 
1.018333e+00 
1.004159e+00 
9.903757e-01 
9.770017e-01 
9.640563e-01 
9.515588e-01 
9.395279e-01 
9.279807e-01 
9.169319e-01 
9.063932e-01 
8.963729e-01 
8.868757e-01 
8.779025e-01 
8.694507e-01 
8.615140e-01 
8.540828e-01 
8.471439e-01 
8.406808e-01 
8.346740e-01 
8.291009e-01 
8.239367e-01 
8.191557e-01 
8.147324e-01 
8.106439e-01 
8.068702e-01 
8.033948e-01 
8.002020e-01 
7.972726e-01 
7.945796e-01 
7.920865e-01 
7.897512e-01 
7.875408e-01 
7.855455e-01 
7.838687e-01 
7.825847e-01 
7.817323e-01 
7.813250e-01 
7.813611e-01 
7.818307e-01 
7.827197e-01 
7.840125e-01 
7.856934e-01 
7.877476e-01 
7.901609e-01 
7.929204e-01 
7.960138e-01 
7.994298e-01 
8.031580e-01 
8.071882e-01 
8.115112e-01 
8.161182e-01 
8.210009e-01 
8.261515e-01 
8.315626e-01 
8.372275e-01 
8.431398e-01 
8.492937e-01 
8.556839e-01 
8.623054e-01 
8.691539e-01 
8.762256e-01 
8.835172e-01 
8.910258e-01 
8.987492e-01 
9.066856e-01 
9.148339e-01 
9.231935e-01 
9.317643e-01 
9.405469e-01 
9.495424e-01 
9.587524e-01 
9.681792e-01 
9.778257e-01 
9.876953e-01 
9.977918e-01 
1.008120e+00 
1.018684e+00 
1.029491e+00 
1.040545e+00 
2.012337e+00 
1.987126e+00 
1.962032e+00 
1.937059e+00 
1.912211e+00 
1.887492e+00 
1.862906e+00 
1.838458e+00 
1.814155e+00 
1.790005e+00 
1.766016e+00 
1.742197e+00 
1.718548e+00 
1.695065e+00 
1.671742e+00 
1.648576e+00 
1.625567e+00 
1.602721e+00 
1.580045e+00 
1.557548e+00 
1.535237e+00 
1.513117e+00 
1.491193e+00 
1.469469e+00 
1.447948e+00 
1.426636e+00 
1.405537e+00 
1.384654e+00 
1.363992e+00 
1.343554e+00 
1.323347e+00 
1.303372e+00 
1.283634e+00 
1.264136e+00 
1.244880e+00 
1.225869e+00 
1.207107e+00 
1.188602e+00 
1.170364e+00 
1.152406e+00 
1.134738e+00 
1.117367e+00 
1.100299e+00 
1.083539e+00 
1.067093e+00 
1.050967e+00 
1.035173e+00 
1.019723e+00 
1.004631e+00 
9.899156e-01 
9.755960e-01 
9.616939e-01 
9.482319e-01 
9.352329e-01 
9.227185e-01 
9.107085e-01 
8.992192e-01 
8.882634e-01 
8.778495e-01 
8.679815e-01 
8.586591e-01 
8.498778e-01 
8.416294e-01 
8.339024e-01 
8.266818e-01 
8.199500e-01 
8.136866e-01 
8.078688e-01 
8.024726e-01 
7.974731e-01 
7.928466e-01 
7.885721e-01 
7.846326e-01 
7.810159e-01 
7.777128e-01 
7.747145e-01 
7.720078e-01 
7.695705e-01 
7.673699e-01 
7.653620e-01 
7.634931e-01 
7.618543e-01 
7.605592e-01 
7.596754e-01 
7.592314e-01 
7.592321e-01 
7.596692e-01 
7.605282e-01 
7.617924e-01 
7.634444e-01 
7.654678e-01 
7.678473e-01 
7.705688e-01 
7.736197e-01 
7.769883e-01 
7.806639e-01 
7.846367e-01 
7.888973e-01 
7.934371e-01 
7.982478e-01 
8.033218e-01 
8.086518e-01 
8.142309e-01 
8.200528e-01 
8.261115e-01 
8.324014e-01 
8.389172e-01 
8.456544e-01 
8.526086e-01 
8.597760e-01 
8.671532e-01 
8.747373e-01 
8.825258e-01 
8.905168e-01 
8.987089e-01 
9.071011e-01 
9.156932e-01 
9.244852e-01 
9.334780e-01 
9.426728e-01 
9.520716e-01 
9.616769e-01 
9.714918e-01 
9.815199e-01 
9.917656e-01 
1.002234e+00 
1.012929e+00 
1.023858e+00 
1.992958e+00 
1.967595e+00 
1.942350e+00 
1.917226e+00 
1.892228e+00 
1.867359e+00 
1.842625e+00 
1.818029e+00 
1.793581e+00 
1.769286e+00 
1.745154e+00 
1.721185e+00 
1.697380e+00 
1.673733e+00 
1.650240e+00 
1.626900e+00 
1.603718e+00 
1.580699e+00 
1.557852e+00 
1.535183e+00 
1.512699e+00 
1.490403e+00 
1.468301e+00 
1.446396e+00 
1.424692e+00 
1.403194e+00 
1.381906e+00 
1.360831e+00 
1.339974e+00 
1.319340e+00 
1.298933e+00 
1.278755e+00 
1.258812e+00 
1.239106e+00 
1.219641e+00 
1.200422e+00 
1.181454e+00 
1.162745e+00 
1.144307e+00 
1.126146e+00 
1.108273e+00 
1.090695e+00 
1.073417e+00 
1.056446e+00 
1.039793e+00 
1.023468e+00 
1.007484e+00 
9.918599e-01 
9.766148e-01 
9.617718e-01 
9.473560e-01 
9.333939e-01 
9.199121e-01 
9.069355e-01 
8.944866e-01 
8.825837e-01 
8.712402e-01 
8.604644e-01 
8.502591e-01 
8.406222e-01 
8.315469e-01 
8.230224e-01 
8.150345e-01 
8.075658e-01 
8.005967e-01 
7.941053e-01 
7.880681e-01 
7.824603e-01 
7.772572e-01 
7.724350e-01 
7.679729e-01 
7.638546e-01 
7.600694e-01 
7.566116e-01 
7.534787e-01 
7.506677e-01 
7.481712e-01 
7.459731e-01 
7.440459e-01 
7.423475e-01 
7.408144e-01 
7.395290e-01 
7.386112e-01 
7.381185e-01 
7.380678e-01 
7.384556e-01 
7.392684e-01 
7.404884e-01 
7.420970e-01 
7.440760e-01 
7.464089e-01 
7.490805e-01 
7.520776e-01 
7.553880e-01 
7.590010e-01 
7.629069e-01 
7.670964e-01 
7.715613e-01 
7.762935e-01 
7.812858e-01 
7.865309e-01 
7.920223e-01 
7.977536e-01 
8.037189e-01 
8.099124e-01 
8.163289e-01 
8.229634e-01 
8.298114e-01 
8.368685e-01 
8.441309e-01 
8.515952e-01 
8.592583e-01 
8.671175e-01 
8.751707e-01 
8.834161e-01 
8.918524e-01 
9.004789e-01 
9.092954e-01 
9.183022e-01 
9.275001e-01 
9.368905e-01 
9.464756e-01 
9.562579e-01 
9.662407e-01 
9.764278e-01 
9.868238e-01 
9.974337e-01 
1.008263e+00 
1.973720e+00 
1.948212e+00 
1.922823e+00 
1.897557e+00 
1.872415e+00 
1.847404e+00 
1.822527e+00 
1.797790e+00 
1.773199e+00 
1.748762e+00 
1.724482e+00 
1.700359e+00 
1.676392e+00 
1.652576e+00 
1.628912e+00 
1.605402e+00 
1.582050e+00 
1.558863e+00 
1.535848e+00 
1.513011e+00 
1.490356e+00 
1.467887e+00 
1.445610e+00 
1.423527e+00 
1.401642e+00 
1.379961e+00 
1.358486e+00 
1.337223e+00 
1.316175e+00 
1.295346e+00 
1.274741e+00 
1.254363e+00 
1.234217e+00 
1.214307e+00 
1.194637e+00 
1.175214e+00 
1.156042e+00 
1.137132e+00 
1.118491e+00 
1.100127e+00 
1.082049e+00 
1.064263e+00 
1.046780e+00 
1.029609e+00 
1.012762e+00 
9.962563e-01 
9.801102e-01 
9.643469e-01 
9.489928e-01 
9.340770e-01 
9.196300e-01 
9.056826e-01 
8.922635e-01 
8.793977e-01 
8.671056e-01 
8.554010e-01 
8.442919e-01 
8.337794e-01 
8.238589e-01 
8.145208e-01 
8.057510e-01 
7.975321e-01 
7.898439e-01 
7.826641e-01 
7.759690e-01 
7.697337e-01 
7.639325e-01 
7.585400e-01 
7.535320e-01 
7.488869e-01 
7.445875e-01 
7.406224e-01 
7.369863e-01 
7.336793e-01 
7.307041e-01 
7.280626e-01 
7.257527e-01 
7.237643e-01 
7.220769e-01 
7.206550e-01 
7.194333e-01 
7.184844e-01 
7.179252e-01 
7.177988e-01 
7.181111e-01 
7.188514e-01 
7.200024e-01 
7.215442e-01 
7.234575e-01 
7.257241e-01 
7.283277e-01 
7.312540e-01 
7.344905e-01 
7.380262e-01 
7.418512e-01 
7.459569e-01 
7.503350e-01 
7.549781e-01 
7.598792e-01 
7.650314e-01 
7.704285e-01 
7.760642e-01 
7.819329e-01 
7.880288e-01 
7.943467e-01 
8.008815e-01 
8.076284e-01 
8.145828e-01 
8.217406e-01 
8.290977e-01 
8.366508e-01 
8.443964e-01 
8.523318e-01 
8.604544e-01 
8.687622e-01 
8.772535e-01 
8.859271e-01 
8.947823e-01 
9.038189e-01 
9.130373e-01 
9.224384e-01 
9.320236e-01 
9.417950e-01 
9.517553e-01 
9.619078e-01 
9.722566e-01 
9.828062e-01 
9.935618e-01 
1.954682e+00 
1.929040e+00 
1.903517e+00 
1.878115e+00 
1.852839e+00 
1.827693e+00 
1.802680e+00 
1.777806e+00 
1.753078e+00 
1.728498e+00 
1.704069e+00 
1.679790e+00 
1.655661e+00 
1.631681e+00 
1.607852e+00 
1.584178e+00 
1.560663e+00 
1.537315e+00 
1.514137e+00 
1.491136e+00 
1.468314e+00 
1.445676e+00 
1.423226e+00 
1.400968e+00 
1.378906e+00 
1.357043e+00 
1.335384e+00 
1.313933e+00 
1.292694e+00 
1.271671e+00 
1.250869e+00 
1.230292e+00 
1.209943e+00 
1.189829e+00 
1.169954e+00 
1.150324e+00 
1.130947e+00 
1.111831e+00 
1.092983e+00 
1.074412e+00 
1.056127e+00 
1.038138e+00 
1.020455e+00 
1.003094e+00 
9.860717e-01 
9.694105e-01 
9.531362e-01 
9.372791e-01 
9.218726e-01 
9.069520e-01 
8.925524e-01 
8.787065e-01 
8.654424e-01 
8.527820e-01 
8.407397e-01 
8.293223e-01 
8.185290e-01 
8.083520e-01 
7.987782e-01 
7.897895e-01 
7.813649e-01 
7.734806e-01 
7.661117e-01 
7.592320e-01 
7.528150e-01 
7.468342e-01 
7.412634e-01 
7.360778e-01 
7.312548e-01 
7.267759e-01 
7.226279e-01 
7.188039e-01 
7.153035e-01 
7.121313e-01 
7.092940e-01 
7.067976e-01 
7.046442e-01 
7.028294e-01 
7.013405e-01 
7.001522e-01 
6.992068e-01 
6.985687e-01 
6.983389e-01 
6.985436e-01 
6.991792e-01 
7.002298e-01 
7.016758e-01 
7.034964e-01 
7.056721e-01 
7.081854e-01 
7.110207e-01 
7.141648e-01 
7.176060e-01 
7.213344e-01 
7.253414e-01 
7.296191e-01 
7.341604e-01 
7.389586e-01 
7.440075e-01 
7.493011e-01 
7.548336e-01 
7.605994e-01 
7.665930e-01 
7.728092e-01 
7.792430e-01 
7.858894e-01 
7.927437e-01 
7.998015e-01 
8.070585e-01 
8.145107e-01 
8.221544e-01 
8.299861e-01 
8.380027e-01 
8.462015e-01 
8.545799e-01 
8.631359e-01 
8.718679e-01 
8.807746e-01 
8.898554e-01 
8.991099e-01 
9.085386e-01 
9.181422e-01 
9.279222e-01 
9.378806e-01 
9.480202e-01 
9.583444e-01 
9.688571e-01 
9.795630e-01 
1.935945e+00 
1.910177e+00 
1.884528e+00 
1.859000e+00 
1.833596e+00 
1.808321e+00 
1.783178e+00 
1.758171e+00 
1.733306e+00 
1.708584e+00 
1.684006e+00 
1.659574e+00 
1.635288e+00 
1.611150e+00 
1.587163e+00 
1.563331e+00 
1.539659e+00 
1.516151e+00 
1.492813e+00 
1.469648e+00 
1.446659e+00 
1.423851e+00 
1.401228e+00 
1.378793e+00 
1.356550e+00 
1.334503e+00 
1.312655e+00 
1.291012e+00 
1.269577e+00 
1.248354e+00 
1.227348e+00 
1.206563e+00 
1.186005e+00 
1.165679e+00 
1.145590e+00 
1.125746e+00 
1.106154e+00 
1.086823e+00 
1.067760e+00 
1.048975e+00 
1.030480e+00 
1.012287e+00 
9.944121e-01 
9.768747e-01 
9.596996e-01 
9.429164e-01 
9.265597e-01 
9.106678e-01 
8.952811e-01 
8.804398e-01 
8.661805e-01 
8.525347e-01 
8.395255e-01 
8.271676e-01 
8.154662e-01 
8.044173e-01 
7.940098e-01 
7.842258e-01 
7.750429e-01 
7.664355e-01 
7.583762e-01 
7.508365e-01 
7.437881e-01 
7.372025e-01 
7.310523e-01 
7.253109e-01 
7.199529e-01 
7.149555e-01 
7.102987e-01 
7.059676e-01 
7.019529e-01 
6.982520e-01 
6.948684e-01 
6.918102e-01 
6.890873e-01 
6.867086e-01 
6.846798e-01 
6.830016e-01 
6.816683e-01 
6.806673e-01 
6.799627e-01 
6.796053e-01 
6.796693e-01 
6.801648e-01 
6.810805e-01 
6.823976e-01 
6.840950e-01 
6.861521e-01 
6.885501e-01 
6.912720e-01 
6.943033e-01 
6.976317e-01 
7.012468e-01 
7.051397e-01 
7.093026e-01 
7.137287e-01 
7.184119e-01 
7.233462e-01 
7.285260e-01 
7.339460e-01 
7.396009e-01 
7.454855e-01 
7.515946e-01 
7.579234e-01 
7.644668e-01 
7.712201e-01 
7.781787e-01 
7.853381e-01 
7.926940e-01 
8.002422e-01 
8.079788e-01 
8.159003e-01 
8.240032e-01 
8.322843e-01 
8.407410e-01 
8.493707e-01 
8.581712e-01 
8.671410e-01 
8.762787e-01 
8.855836e-01 
8.950551e-01 
9.046937e-01 
9.145000e-01 
9.244754e-01 
9.346219e-01 
9.449422e-01 
9.554396e-01 
9.661181e-01 
1.917605e+00 
1.891718e+00 
1.865948e+00 
1.840297e+00 
1.814769e+00 
1.789367e+00 
1.764094e+00 
1.738954e+00 
1.713950e+00 
1.689084e+00 
1.664358e+00 
1.639774e+00 
1.615333e+00 
1.591038e+00 
1.566894e+00 
1.542903e+00 
1.519070e+00 
1.495399e+00 
1.471894e+00 
1.448559e+00 
1.425396e+00 
1.402410e+00 
1.379603e+00 
1.356981e+00 
1.334547e+00 
1.312303e+00 
1.290255e+00 
1.268407e+00 
1.246762e+00 
1.225324e+00 
1.204100e+00 
1.183094e+00 
1.162311e+00 
1.141758e+00 
1.121442e+00 
1.101370e+00 
1.081551e+00 
1.061993e+00 
1.042706e+00 
1.023703e+00 
1.004997e+00 
9.866066e-01 
9.685529e-01 
9.508638e-01 
9.335727e-01 
9.167191e-01 
9.003468e-01 
8.845019e-01 
8.692299e-01 
8.545720e-01 
8.405624e-01 
8.272260e-01 
8.145765e-01 
8.026168e-01 
7.913394e-01 
7.807282e-01 
7.707601e-01 
7.614074e-01 
7.526396e-01 
7.444248e-01 
7.367311e-01 
7.295274e-01 
7.227837e-01 
7.164714e-01 
7.105638e-01 
7.050357e-01 
6.998641e-01 
6.950287e-01 
6.905133e-01 
6.863064e-01 
6.824026e-01 
6.788030e-01 
6.755141e-01 
6.725466e-01 
6.699129e-01 
6.676243e-01 
6.656894e-01 
6.641128e-01 
6.628951e-01 
6.620360e-01 
6.615407e-01 
6.614312e-01 
6.617502e-01 
6.624943e-01 
6.636470e-01 
6.651878e-01 
6.670956e-01 
6.693504e-01 
6.719340e-01 
6.748306e-01 
6.780266e-01 
6.815108e-01 
6.852735e-01 
6.893071e-01 
6.936046e-01 
6.981601e-01 
7.029680e-01 
7.080233e-01 
7.133210e-01 
7.188560e-01 
7.246235e-01 
7.306187e-01 
7.368367e-01 
7.432725e-01 
7.499216e-01 
7.567790e-01 
7.638403e-01 
7.711007e-01 
7.785560e-01 
7.862019e-01 
7.940343e-01 
8.020494e-01 
8.102434e-01 
8.186131e-01 
8.271551e-01 
8.358667e-01 
8.447453e-01 
8.537888e-01 
8.629952e-01 
8.723633e-01 
8.818920e-01 
8.915809e-01 
9.014300e-01 
9.114400e-01 
9.216122e-01 
9.319484e-01 
9.424512e-01 
9.531239e-01 
1.899702e+00 
1.873695e+00 
1.847802e+00 
1.822026e+00 
1.796369e+00 
1.770835e+00 
1.745426e+00 
1.720146e+00 
1.694997e+00 
1.669981e+00 
1.645101e+00 
1.620358e+00 
1.595757e+00 
1.571300e+00 
1.546990e+00 
1.522831e+00 
1.498827e+00 
1.474981e+00 
1.451296e+00 
1.427776e+00 
1.404425e+00 
1.381245e+00 
1.358241e+00 
1.335416e+00 
1.312773e+00 
1.290316e+00 
1.268051e+00 
1.245979e+00 
1.224107e+00 
1.202440e+00 
1.180981e+00 
1.159739e+00 
1.138718e+00 
1.117926e+00 
1.097371e+00 
1.077062e+00 
1.057008e+00 
1.037219e+00 
1.017709e+00 
9.984924e-01 
9.795883e-01 
9.610211e-01 
9.428218e-01 
9.250280e-01 
9.076843e-01 
8.908406e-01 
8.745491e-01 
8.588608e-01 
8.438219e-01 
8.294694e-01 
8.158290e-01 
8.029133e-01 
7.907221e-01 
7.792430e-01 
7.684543e-01 
7.583268e-01 
7.488267e-01 
7.399179e-01 
7.315638e-01 
7.237289e-01 
7.163793e-01 
7.094834e-01 
7.030120e-01 
6.969382e-01 
6.912374e-01 
6.858873e-01 
6.808681e-01 
6.761631e-01 
6.717595e-01 
6.676496e-01 
6.638312e-01 
6.603082e-01 
6.570897e-01 
6.541884e-01 
6.516183e-01 
6.493930e-01 
6.475234e-01 
6.460171e-01 
6.448794e-01 
6.441205e-01 
6.438056e-01 
6.439084e-01 
6.444416e-01 
6.453919e-01 
6.467398e-01 
6.484644e-01 
6.505451e-01 
6.529626e-01 
6.556998e-01 
6.587417e-01 
6.620758e-01 
6.656915e-01 
6.695803e-01 
6.737352e-01 
6.781502e-01 
6.828199e-01 
6.877396e-01 
6.929045e-01 
6.983102e-01 
7.039519e-01 
7.098253e-01 
7.159255e-01 
7.222478e-01 
7.287875e-01 
7.355399e-01 
7.425001e-01 
7.496635e-01 
7.570255e-01 
7.645816e-01 
7.723274e-01 
7.802586e-01 
7.883712e-01 
7.966612e-01 
8.051250e-01 
8.137590e-01 
8.225601e-01 
8.315254e-01 
8.406521e-01 
8.499380e-01 
8.593811e-01 
8.689799e-01 
8.787333e-01 
8.886408e-01 
8.987021e-01 
9.089178e-01 
9.192890e-01 
9.298174e-01 
9.405055e-01 
1.882180e+00 
1.856045e+00 
1.830020e+00 
1.804109e+00 
1.778314e+00 
1.752638e+00 
1.727083e+00 
1.701652e+00 
1.676348e+00 
1.651172e+00 
1.626129e+00 
1.601220e+00 
1.576449e+00 
1.551819e+00 
1.527333e+00 