# vtk DataFile Version 2.0 
Quadtree Mesh 
ASCII 
DATASET UNSTRUCTURED_GRID 
POINTS 16384 double 
-1.000000e+00 -1.000000e+00 0.000000e+00
-9.842520e-01 -1.000000e+00 0.000000e+00
-9.685039e-01 -1.000000e+00 0.000000e+00
-9.527559e-01 -1.000000e+00 0.000000e+00
-9.370079e-01 -1.000000e+00 0.000000e+00
-9.212598e-01 -1.000000e+00 0.000000e+00
-9.055118e-01 -1.000000e+00 0.000000e+00
-8.897638e-01 -1.000000e+00 0.000000e+00
-8.740157e-01 -1.000000e+00 0.000000e+00
-8.582677e-01 -1.000000e+00 0.000000e+00
-8.425197e-01 -1.000000e+00 0.000000e+00
-8.267717e-01 -1.000000e+00 0.000000e+00
-8.110236e-01 -1.000000e+00 0.000000e+00
-7.952756e-01 -1.000000e+00 0.000000e+00
-7.795276e-01 -1.000000e+00 0.000000e+00
-7.637795e-01 -1.000000e+00 0.000000e+00
-7.480315e-01 -1.000000e+00 0.000000e+00
-7.322835e-01 -1.000000e+00 0.000000e+00
-7.165354e-01 -1.000000e+00 0.000000e+00
-7.007874e-01 -1.000000e+00 0.000000e+00
-6.850394e-01 -1.000000e+00 0.000000e+00
-6.692913e-01 -1.000000e+00 0.000000e+00
-6.535433e-01 -1.000000e+00 0.000000e+00
-6.377953e-01 -1.000000e+00 0.000000e+00
-6.220472e-01 -1.000000e+00 0.000000e+00
-6.062992e-01 -1.000000e+00 0.000000e+00
-5.905512e-01 -1.000000e+00 0.000000e+00
-5.748031e-01 -1.000000e+00 0.000000e+00
-5.590551e-01 -1.000000e+00 0.000000e+00
-5.433071e-01 -1.000000e+00 0.000000e+00
-5.275591e-01 -1.000000e+00 0.000000e+00
-5.118110e-01 -1.000000e+00 0.000000e+00
-4.960630e-01 -1.000000e+00 0.000000e+00
-4.803150e-01 -1.000000e+00 0.000000e+00
-4.645669e-01 -1.000000e+00 0.000000e+00
-4.488189e-01 -1.000000e+00 0.000000e+00
-4.330709e-01 -1.000000e+00 0.000000e+00
-4.173228e-01 -1.000000e+00 0.000000e+00
-4.015748e-01 -1.000000e+00 0.000000e+00
-3.858268e-01 -1.000000e+00 0.000000e+00
-3.700787e-01 -1.000000e+00 0.000000e+00
-3.543307e-01 -1.000000e+00 0.000000e+00
-3.385827e-01 -1.000000e+00 0.000000e+00
-3.228346e-01 -1.000000e+00 0.000000e+00
-3.070866e-01 -1.000000e+00 0.000000e+00
-2.913386e-01 -1.000000e+00 0.000000e+00
-2.755906e-01 -1.000000e+00 0.000000e+00
-2.598425e-01 -1.000000e+00 0.000000e+00
-2.440945e-01 -1.000000e+00 0.000000e+00
-2.283465e-01 -1.000000e+00 0.000000e+00
-2.125984e-01 -1.000000e+00 0.000000e+00
-1.968504e-01 -1.000000e+00 0.000000e+00
-1.811024e-01 -1.000000e+00 0.000000e+00
-1.653543e-01 -1.000000e+00 0.000000e+00
-1.496063e-01 -1.000000e+00 0.000000e+00
-1.338583e-01 -1.000000e+00 0.000000e+00
-1.181102e-01 -1.000000e+00 0.000000e+00
-1.023622e-01 -1.000000e+00 0.000000e+00
-8.661417e-02 -1.000000e+00 0.000000e+00
-7.086614e-02 -1.000000e+00 0.000000e+00
-5.511811e-02 -1.000000e+00 0.000000e+00
-3.937008e-02 -1.000000e+00 0.000000e+00
-2.362205e-02 -1.000000e+00 0.000000e+00
-7.874016e-03 -1.000000e+00 0.000000e+00
7.874016e-03 -1.000000e+00 0.000000e+00
2.362205e-02 -1.000000e+00 0.000000e+00
3.937008e-02 -1.000000e+00 0.000000e+00
5.511811e-02 -1.000000e+00 0.000000e+00
7.086614e-02 -1.000000e+00 0.000000e+00
8.661417e-02 -1.000000e+00 0.000000e+00
1.023622e-01 -1.000000e+00 0.000000e+00
1.181102e-01 -1.000000e+00 0.000000e+00
1.338583e-01 -1.000000e+00 0.000000e+00
1.496063e-01 -1.000000e+00 0.000000e+00
1.653543e-01 -1.000000e+00 0.000000e+00
1.811024e-01 -1.000000e+00 0.000000e+00
1.968504e-01 -1.000000e+00 0.000000e+00
2.125984e-01 -1.000000e+00 0.000000e+00
2.283465e-01 -1.000000e+00 0.000000e+00
2.440945e-01 -1.000000e+00 0.000000e+00
2.598425e-01 -1.000000e+00 0.000000e+00
2.755906e-01 -1.000000e+00 0.000000e+00
2.913386e-01 -1.000000e+00 0.000000e+00
3.070866e-01 -1.000000e+00 0.000000e+00
3.228346e-01 -1.000000e+00 0.000000e+00
3.385827e-01 -1.000000e+00 0.000000e+00
3.543307e-01 -1.000000e+00 0.000000e+00
3.700787e-01 -1.000000e+00 0.000000e+00
3.858268e-01 -1.000000e+00 0.000000e+00
4.015748e-01 -1.000000e+00 0.000000e+00
4.173228e-01 -1.000000e+00 0.000000e+00
4.330709e-01 -1.000000e+00 0.000000e+00
4.488189e-01 -1.000000e+00 0.000000e+00
4.645669e-01 -1.000000e+00 0.000000e+00
4.803150e-01 -1.000000e+00 0.000000e+00
4.960630e-01 -1.000000e+00 0.000000e+00
5.118110e-01 -1.000000e+00 0.000000e+00
5.275591e-01 -1.000000e+00 0.000000e+00
5.433071e-01 -1.000000e+00 0.000000e+00
5.590551e-01 -1.000000e+00 0.000000e+00
5.748031e-01 -1.000000e+00 0.000000e+00
5.905512e-01 -1.000000e+00 0.000000e+00
6.062992e-01 -1.000000e+00 0.000000e+00
6.220472e-01 -1.000000e+00 0.000000e+00
6.377953e-01 -1.000000e+00 0.000000e+00
6.535433e-01 -1.000000e+00 0.000000e+00
6.692913e-01 -1.000000e+00 0.000000e+00
6.850394e-01 -1.000000e+00 0.000000e+00
7.007874e-01 -1.000000e+00 0.000000e+00
7.165354e-01 -1.000000e+00 0.000000e+00
7.322835e-01 -1.000000e+00 0.000000e+00
7.480315e-01 -1.000000e+00 0.000000e+00
7.637795e-01 -1.000000e+00 0.000000e+00
7.795276e-01 -1.000000e+00 0.000000e+00
7.952756e-01 -1.000000e+00 0.000000e+00
8.110236e-01 -1.000000e+00 0.000000e+00
8.267717e-01 -1.000000e+00 0.000000e+00
8.425197e-01 -1.000000e+00 0.000000e+00
8.582677e-01 -1.000000e+00 0.000000e+00
8.740157e-01 -1.000000e+00 0.000000e+00
8.897638e-01 -1.000000e+00 0.000000e+00
9.055118e-01 -1.000000e+00 0.000000e+00
9.212598e-01 -1.000000e+00 0.000000e+00
9.370079e-01 -1.000000e+00 0.000000e+00
9.527559e-01 -1.000000e+00 0.000000e+00
9.685039e-01 -1.000000e+00 0.000000e+00
9.842520e-01 -1.000000e+00 0.000000e+00
1.000000e+00 -1.000000e+00 0.000000e+00
-1.000000e+00 -9.842520e-01 0.000000e+00
-9.842520e-01 -9.842520e-01 0.000000e+00
-9.685039e-01 -9.842520e-01 0.000000e+00
-9.527559e-01 -9.842520e-01 0.000000e+00
-9.370079e-01 -9.842520e-01 0.000000e+00
-9.212598e-01 -9.842520e-01 0.000000e+00
-9.055118e-01 -9.842520e-01 0.000000e+00
-8.897638e-01 -9.842520e-01 0.000000e+00
-8.740157e-01 -9.842520e-01 0.000000e+00
-8.582677e-01 -9.842520e-01 0.000000e+00
-8.425197e-01 -9.842520e-01 0.000000e+00
-8.267717e-01 -9.842520e-01 0.000000e+00
-8.110236e-01 -9.842520e-01 0.000000e+00
-7.952756e-01 -9.842520e-01 0.000000e+00
-7.795276e-01 -9.842520e-01 0.000000e+00
-7.637795e-01 -9.842520e-01 0.000000e+00
-7.480315e-01 -9.842520e-01 0.000000e+00
-7.322835e-01 -9.842520e-01 0.000000e+00
-7.165354e-01 -9.842520e-01 0.000000e+00
-7.007874e-01 -9.842520e-01 0.000000e+00
-6.850394e-01 -9.842520e-01 0.000000e+00
-6.692913e-01 -9.842520e-01 0.000000e+00
-6.535433e-01 -9.842520e-01 0.000000e+00
-6.377953e-01 -9.842520e-01 0.000000e+00
-6.220472e-01 -9.842520e-01 0.000000e+00
-6.062992e-01 -9.842520e-01 0.000000e+00
-5.905512e-01 -9.842520e-01 0.000000e+00
-5.748031e-01 -9.842520e-01 0.000000e+00
-5.590551e-01 -9.842520e-01 0.000000e+00
-5.433071e-01 -9.842520e-01 0.000000e+00
-5.275591e-01 -9.842520e-01 0.000000e+00
-5.118110e-01 -9.842520e-01 0.000000e+00
-4.960630e-01 -9.842520e-01 0.000000e+00
-4.803150e-01 -9.842520e-01 0.000000e+00
-4.645669e-01 -9.842520e-01 0.000000e+00
-4.488189e-01 -9.842520e-01 0.000000e+00
-4.330709e-01 -9.842520e-01 0.000000e+00
-4.173228e-01 -9.842520e-01 0.000000e+00
-4.015748e-01 -9.842520e-01 0.000000e+00
-3.858268e-01 -9.842520e-01 0.000000e+00
-3.700787e-01 -9.842520e-01 0.000000e+00
-3.543307e-01 -9.842520e-01 0.000000e+00
-3.385827e-01 -9.842520e-01 0.000000e+00
-3.228346e-01 -9.842520e-01 0.000000e+00
-3.070866e-01 -9.842520e-01 0.000000e+00
-2.913386e-01 -9.842520e-01 0.000000e+00
-2.755906e-01 -9.842520e-01 0.000000e+00
-2.598425e-01 -9.842520e-01 0.000000e+00
-2.440945e-01 -9.842520e-01 0.000000e+00
-2.283465e-01 -9.842520e-01 0.000000e+00
-2.125984e-01 -9.842520e-01 0.000000e+00
-1.968504e-01 -9.842520e-01 0.000000e+00
-1.811024e-01 -9.842520e-01 0.000000e+00
-1.653543e-01 -9.842520e-01 0.000000e+00
-1.496063e-01 -9.842520e-01 0.000000e+00
-1.338583e-01 -9.842520e-01 0.000000e+00
-1.181102e-01 -9.842520e-01 0.000000e+00
-1.023622e-01 -9.842520e-01 0.000000e+00
-8.661417e-02 -9.842520e-01 0.000000e+00
-7.086614e-02 -9.842520e-01 0.000000e+00
-5.511811e-02 -9.842520e-01 0.000000e+00
-3.937008e-02 -9.842520e-01 0.000000e+00
-2.362205e-02 -9.842520e-01 0.000000e+00
-7.874016e-03 -9.842520e-01 0.000000e+00
7.874016e-03 -9.842520e-01 0.000000e+00
2.362205e-02 -9.842520e-01 0.000000e+00
3.937008e-02 -9.842520e-01 0.000000e+00
5.511811e-02 -9.842520e-01 0.000000e+00
7.086614e-02 -9.842520e-01 0.000000e+00
8.661417e-02 -9.842520e-01 0.000000e+00
1.023622e-01 -9.842520e-01 0.000000e+00
1.181102e-01 -9.842520e-01 0.000000e+00
1.338583e-01 -9.842520e-01 0.000000e+00
1.496063e-01 -9.842520e-01 0.000000e+00
1.653543e-01 -9.842520e-01 0.000000e+00
1.811024e-01 -9.842520e-01 0.000000e+00
1.968504e-01 -9.842520e-01 0.000000e+00
2.125984e-01 -9.842520e-01 0.000000e+00
2.283465e-01 -9.842520e-01 0.000000e+00
2.440945e-01 -9.842520e-01 0.000000e+00
2.598425e-01 -9.842520e-01 0.000000e+00
2.755906e-01 -9.842520e-01 0.000000e+00
2.913386e-01 -9.842520e-01 0.000000e+00
3.070866e-01 -9.842520e-01 0.000000e+00
3.228346e-01 -9.842520e-01 0.000000e+00
3.385827e-01 -9.842520e-01 0.000000e+00
3.543307e-01 -9.842520e-01 0.000000e+00
3.700787e-01 -9.842520e-01 0.000000e+00
3.858268e-01 -9.842520e-01 0.000000e+00
4.015748e-01 -9.842520e-01 0.000000e+00
4.173228e-01 -9.842520e-01 0.000000e+00
4.330709e-01 -9.842520e-01 0.000000e+00
4.488189e-01 -9.842520e-01 0.000000e+00
4.645669e-01 -9.842520e-01 0.000000e+00
4.803150e-01 -9.842520e-01 0.000000e+00
4.960630e-01 -9.842520e-01 0.000000e+00
5.118110e-01 -9.842520e-01 0.000000e+00
5.275591e-01 -9.842520e-01 0.000000e+00
5.433071e-01 -9.842520e-01 0.000000e+00
5.590551e-01 -9.842520e-01 0.000000e+00
5.748031e-01 -9.842520e-01 0.000000e+00
5.905512e-01 -9.842520e-01 0.000000e+00
6.062992e-01 -9.842520e-01 0.000000e+00
6.220472e-01 -9.842520e-01 0.000000e+00
6.377953e-01 -9.842520e-01 0.000000e+00
6.535433e-01 -9.842520e-01 0.000000e+00
6.692913e-01 -9.842520e-01 0.000000e+00
6.850394e-01 -9.842520e-01 0.000000e+00
7.007874e-01 -9.842520e-01 0.000000e+00
7.165354e-01 -9.842520e-01 0.000000e+00
7.322835e-01 -9.842520e-01 0.000000e+00
7.480315e-01 -9.842520e-01 0.000000e+00
7.637795e-01 -9.842520e-01 0.000000e+00
7.795276e-01 -9.842520e-01 0.000000e+00
7.952756e-01 -9.842520e-01 0.000000e+00
8.110236e-01 -9.842520e-01 0.000000e+00
[...]
POINT_DATA 16384 
SCALARS concentration double 1 
LOOKUP_TABLE default 
2.487806e+00 
2.463233e+00 
2.438781e+00 
2.414453e+00 
2.390251e+00 
2.366179e+00 
2.342239e+00 
2.318435e+00 
2.294771e+00 
2.271248e+00 
2.247872e+00 
2.224645e+00 
2.201570e+00 
2.178653e+00 
2.155897e+00 
2.133305e+00 
2.110882e+00 
2.088632e+00 
2.066560e+00 
2.044669e+00 
2.022964e+00 
2.001450e+00 
1.980132e+00 
1.959014e+00 
1.938102e+00 
1.917401e+00 
1.896915e+00 
1.876651e+00 
1.856613e+00 
1.836807e+00 
1.817238e+00 
1.797913e+00 
1.778837e+00 
1.760016e+00 
1.741456e+00 
1.723163e+00 
1.705143e+00 
1.687403e+00 
1.669948e+00 
1.652785e+00 
1.635921e+00 
1.619361e+00 
1.603113e+00 
1.587182e+00 
1.571575e+00 
1.556300e+00 
1.541362e+00 
1.526768e+00 
1.512525e+00 
1.498640e+00 
1.485118e+00 
1.471967e+00 
1.459193e+00 
1.446803e+00 
1.434803e+00 
1.423200e+00 
1.411999e+00 
1.401208e+00 
1.390832e+00 
1.380878e+00 
1.371351e+00 
1.362258e+00 
1.353603e+00 
1.345393e+00 
1.337631e+00 
1.330324e+00 
1.323473e+00 
1.317082e+00 
1.311148e+00 
1.305664e+00 
1.300610e+00 
1.295948e+00 
1.291611e+00 
1.287502e+00 
1.283516e+00 
1.279574e+00 
1.275720e+00 
1.272067e+00 
1.268722e+00 
1.265754e+00 
1.263204e+00 
1.261095e+00 
1.259439e+00 
1.258240e+00 
1.257503e+00 
1.257227e+00 
1.257414e+00 
1.258062e+00 
1.259171e+00 
1.260739e+00 
1.262764e+00 
1.265245e+00 
1.268178e+00 
1.271562e+00 
1.275393e+00 
1.279669e+00 
1.284386e+00 
1.289541e+00 
1.295130e+00 
1.301149e+00 
1.307595e+00 
1.314463e+00 
1.321749e+00 
1.329449e+00 
1.337557e+00 
1.346069e+00 
1.354981e+00 
1.364287e+00 
1.373983e+00 
1.384063e+00 
1.394523e+00 
1.405356e+00 
1.416558e+00 
1.428124e+00 
1.440048e+00 
1.452325e+00 
1.464950e+00 
1.477917e+00 
1.491221e+00 
1.504856e+00 
1.518818e+00 
1.533101e+00 
1.547700e+00 
1.562609e+00 
1.577824e+00 
1.593339e+00 
1.609149e+00 
1.625250e+00 
2.467544e+00 
2.442800e+00 
2.418174e+00 
2.393672e+00 
2.369294e+00 
2.345045e+00 
2.320927e+00 
2.296945e+00 
2.273100e+00 
2.249397e+00 
2.225840e+00 
2.202431e+00 
2.179175e+00 
2.156076e+00 
2.133137e+00 
2.110362e+00 
2.087757e+00 
2.065324e+00 
2.043069e+00 
2.020996e+00 
1.999109e+00 
1.977414e+00 
1.955915e+00 
1.934617e+00 
1.913525e+00 
1.892644e+00 
1.871980e+00 
1.851538e+00 
1.831323e+00 
1.811341e+00 
1.791598e+00 
1.772099e+00 
1.752850e+00 
1.733857e+00 
1.715125e+00 
1.696662e+00 
1.678473e+00 
1.660565e+00 
1.642943e+00 
1.625614e+00 
1.608585e+00 
1.591861e+00 
1.575450e+00 
1.559358e+00 
1.543592e+00 
1.528158e+00 
1.513063e+00 
1.498313e+00 
1.483917e+00 
1.469879e+00 
1.456207e+00 
1.442908e+00 
1.429988e+00 
1.417454e+00 
1.405313e+00 
1.393571e+00 
1.382235e+00 
1.371311e+00 
1.360806e+00 
1.350726e+00 
1.341077e+00 
1.331866e+00 
1.323098e+00 
1.314778e+00 
1.306912e+00 
1.299506e+00 
1.292562e+00 
1.286084e+00 
1.280071e+00 
1.274517e+00 
1.269407e+00 
1.264704e+00 
1.260345e+00 
1.256235e+00 
1.252265e+00 
1.248352e+00 
1.244507e+00 
1.240849e+00 
1.237489e+00 
1.234503e+00 
1.231937e+00 
1.229815e+00 
1.228149e+00 
1.226947e+00 
1.226212e+00 
1.225945e+00 
1.226147e+00 
1.226816e+00 
1.227952e+00 
1.229553e+00 
1.231618e+00 
1.234144e+00 
1.237129e+00 
1.240570e+00 
1.244465e+00 
1.248811e+00 
1.253603e+00 
1.258839e+00 
1.264514e+00 
1.270625e+00 
1.277167e+00 
1.284136e+00 
1.291528e+00 
1.299338e+00 
1.307562e+00 
1.316193e+00 
1.325228e+00 
1.334662e+00 
1.344488e+00 
1.354702e+00 
1.365299e+00 
1.376273e+00 
1.387618e+00 
1.399330e+00 
1.411402e+00 
1.423830e+00 
1.436607e+00 
1.449728e+00 
1.463189e+00 
1.476982e+00 
1.491103e+00 
1.505546e+00 
1.520305e+00 
1.535376e+00 
1.550753e+00 
1.566431e+00 
1.582404e+00 
1.598667e+00 
2.447298e+00 
2.422387e+00 
2.397594e+00 
2.372923e+00 
2.348377e+00 
2.323959e+00 
2.299672e+00 
2.275519e+00 
2.251504e+00 
2.227631e+00 
2.203902e+00 
2.180322e+00 
2.156895e+00 
2.133625e+00 
2.110514e+00 
2.087569e+00 
2.064793e+00 
2.042189e+00 
2.019764e+00 
1.997520e+00 
1.975464e+00 
1.953599e+00 
1.931931e+00 
1.910464e+00 
1.889203e+00 
1.868154e+00 
1.847322e+00 
1.826712e+00 
1.806330e+00 
1.786180e+00 
1.766270e+00 
1.746604e+00 
1.727189e+00 
1.708029e+00 
1.689132e+00 
1.670503e+00 
1.652149e+00 
1.634075e+00 
1.616288e+00 
1.598795e+00 
1.581601e+00 
1.564714e+00 
1.548140e+00 
1.531885e+00 
1.515956e+00 
1.500361e+00 
1.485105e+00 
1.470196e+00 
1.455641e+00 
1.441446e+00 
1.427619e+00 
1.414165e+00 
1.401093e+00 
1.388410e+00 
1.376121e+00 
1.364234e+00 
1.352755e+00 
1.341692e+00 
1.331052e+00 
1.320839e+00 
1.311062e+00 
1.301726e+00 
1.292838e+00 
1.284403e+00 
1.276427e+00 
1.268916e+00 
1.261873e+00 
1.255303e+00 
1.249205e+00 
1.243576e+00 
1.238400e+00 
1.233645e+00 
1.229251e+00 
1.225124e+00 
1.221156e+00 
1.217263e+00 
1.213425e+00 
1.209760e+00 
1.206383e+00 
1.203377e+00 
1.200790e+00 
1.198652e+00 
1.196974e+00 
1.195767e+00 
1.195032e+00 
1.194772e+00 
1.194987e+00 
1.195676e+00 
1.196839e+00 
1.198474e+00 
1.200579e+00 
1.203151e+00 
1.206189e+00 
1.209690e+00 
1.213650e+00 
1.218067e+00 
1.222937e+00 
1.228255e+00 
1.234019e+00 
1.240224e+00 
1.246866e+00 
1.253940e+00 
1.261442e+00 
1.269366e+00 
1.277708e+00 
1.286463e+00 
1.295625e+00 
1.305189e+00 
1.315151e+00 
1.325503e+00 
1.336242e+00 
1.347360e+00 
1.358853e+00 
1.370715e+00 
1.382941e+00 
1.395523e+00 
1.408458e+00 
1.421739e+00 
1.435360e+00 
1.449315e+00 
1.463600e+00 
1.478208e+00 
1.493134e+00 
1.508372e+00 
1.523916e+00 
1.539762e+00 
1.555903e+00 
1.572335e+00 
2.427140e+00 
2.402072e+00 
2.377123e+00 
2.352295e+00 
2.327592e+00 
2.303016e+00 
2.278571e+00 
2.254260e+00 
2.230087e+00 
2.206055e+00 
2.182168e+00 
2.158429e+00 
2.134843e+00 
2.111414e+00 
2.088145e+00 
2.065040e+00 
2.042104e+00 
2.019342e+00 
1.996757e+00 
1.974353e+00 
1.952137e+00 
1.930112e+00 
1.908283e+00 
1.886655e+00 
1.865234e+00 
1.844023e+00 
1.823029e+00 
1.802257e+00 
1.781712e+00 
1.761399e+00 
1.741325e+00 
1.721495e+00 
1.701914e+00 
1.682589e+00 
1.663526e+00 
1.644731e+00 
1.626209e+00 
1.607968e+00 
1.590013e+00 
1.572352e+00 
1.554989e+00 
1.537933e+00 
1.521190e+00 
1.504767e+00 
1.488670e+00 
1.472906e+00 
1.457483e+00 
1.442408e+00 
1.427687e+00 
1.413327e+00 
1.399336e+00 
1.385721e+00 
1.372489e+00 
1.359648e+00 
1.347204e+00 
1.335164e+00 
1.323536e+00 
1.312326e+00 
1.301542e+00 
1.291190e+00 
1.281278e+00 
1.271811e+00 
1.262796e+00 
1.254239e+00 
1.246147e+00 
1.238525e+00 
1.231378e+00 
1.224710e+00 
1.218522e+00 
1.212810e+00 
1.207562e+00 
1.202746e+00 
1.198305e+00 
1.194149e+00 
1.190170e+00 
1.186290e+00 
1.182461e+00 
1.178787e+00 
1.175391e+00 
1.172361e+00 
1.169752e+00 
1.167593e+00 
1.165902e+00 
1.164685e+00 
1.163948e+00 
1.163692e+00 
1.163918e+00 
1.164626e+00 
1.165814e+00 
1.167480e+00 
1.169623e+00 
1.172241e+00 
1.175331e+00 
1.178891e+00 
1.182916e+00 
1.187405e+00 
1.192352e+00 
1.197755e+00 
1.203609e+00 
1.209910e+00 
1.216653e+00 
1.223835e+00 
1.231449e+00 
1.239491e+00 
1.247956e+00 
1.256838e+00 
1.266133e+00 
1.275833e+00 
1.285935e+00 
1.296432e+00 
1.307318e+00 
1.318588e+00 
1.330236e+00 
1.342255e+00 
1.354640e+00 
1.367385e+00 
1.380485e+00 
1.393932e+00 
1.407721e+00 
1.421846e+00 
1.436302e+00 
1.451082e+00 
1.466181e+00 
1.481592e+00 
1.497311e+00 
1.513332e+00 
1.529648e+00 
1.546255e+00 
2.407181e+00 
2.381970e+00 
2.356876e+00 
2.331904e+00 
2.307055e+00 
2.282334e+00 
2.257743e+00 
2.233286e+00 
2.208966e+00 
2.184787e+00 
2.160753e+00 
2.136866e+00 
2.113132e+00 
2.089553e+00 
2.066134e+00 
2.042879e+00 
2.019793e+00 
1.996878e+00 
1.974140e+00 
1.951583e+00 
1.929212e+00 
1.907032e+00 
1.885046e+00 
1.863261e+00 
1.841680e+00 
1.820310e+00 
1.799155e+00 
1.778220e+00 
1.757512e+00 
1.737034e+00 
1.716794e+00 
1.696797e+00 
1.677048e+00 
1.657553e+00 
1.638319e+00 
1.619352e+00 
1.600658e+00 
1.582243e+00 
1.564114e+00 
1.546277e+00 
1.528739e+00 
1.511507e+00 
1.494587e+00 
1.477987e+00 
1.461714e+00 
1.445774e+00 
1.430175e+00 
1.414924e+00 
1.400029e+00 
1.385496e+00 
1.371334e+00 
1.357549e+00 
1.344149e+00 
1.331142e+00 
1.318534e+00 
1.306334e+00 
1.294548e+00 
1.283184e+00 
1.272249e+00 
1.261750e+00 
1.251695e+00 
1.242090e+00 
1.232942e+00 
1.224257e+00 
1.216042e+00 
1.208303e+00 
1.201045e+00 
1.194272e+00 
1.187987e+00 
1.182187e+00 
1.176858e+00 
1.171972e+00 
1.167474e+00 
1.163278e+00 
1.159279e+00 
1.155395e+00 
1.151564e+00 
1.147874e+00 
1.144450e+00 
1.141389e+00 
1.138747e+00 
1.136559e+00 
1.134841e+00 
1.133606e+00 
1.132856e+00 
1.132594e+00 
1.132821e+00 
1.133536e+00 
1.134739e+00 
1.136427e+00 
1.138600e+00 
1.141255e+00 
1.144389e+00 
1.148000e+00 
1.152084e+00 
1.156638e+00 
1.161658e+00 
1.167141e+00 
1.173083e+00 
1.179478e+00 
1.186322e+00 
1.193611e+00 
1.201339e+00 
1.209501e+00 
1.218092e+00 
1.227107e+00 
1.236539e+00 
1.246383e+00 
1.256632e+00 
1.267282e+00 
1.278326e+00 
1.289757e+00 
1.301570e+00 
1.313759e+00 
1.326316e+00 
1.339237e+00 
1.352514e+00 
1.366142e+00 
1.380114e+00 
1.394423e+00 
1.409065e+00 
1.424032e+00 
1.439318e+00 
1.454919e+00 
1.470827e+00 
1.487036e+00 
1.503542e+00 
1.520337e+00 
2.387545e+00 
2.362201e+00 
2.336974e+00 
2.311868e+00 
2.286884e+00 
2.262027e+00 
2.237300e+00 
2.212705e+00 
2.188247e+00 
2.163929e+00 
2.139753e+00 
2.115725e+00 
2.091848e+00 
2.068125e+00 
2.044561e+00 
2.021159e+00 
1.997924e+00 
1.974860e+00 
1.951970e+00 
1.929261e+00 
1.906735e+00 
1.884399e+00 
1.862255e+00 
1.840310e+00 
1.818568e+00 
1.797035e+00 
1.775715e+00 
1.754613e+00 
1.733736e+00 
1.713088e+00 
1.692676e+00 
1.672505e+00 
1.652581e+00 
1.632909e+00 
1.613497e+00 
1.594350e+00 
1.575475e+00 
1.556878e+00 
1.538565e+00 
1.520544e+00 
1.502821e+00 
1.485404e+00 
1.468299e+00 
1.451513e+00 
1.435053e+00 
1.418928e+00 
1.403144e+00 
1.387708e+00 
1.372629e+00 
1.357913e+00 
1.343569e+00 
1.329604e+00 
1.316026e+00 
1.302843e+00 
1.290061e+00 
1.277690e+00 
1.265736e+00 
1.254206e+00 
1.243110e+00 
1.232454e+00 
1.222245e+00 
1.212491e+00 
1.203199e+00 
1.194375e+00 
1.186027e+00 
1.178161e+00 
1.170782e+00 
1.163896e+00 
1.157504e+00 
1.151605e+00 
1.146186e+00 
1.141220e+00 
1.136655e+00 
1.132408e+00 
1.128371e+00 
1.124452e+00 
1.120583e+00 
1.116852e+00 
1.113381e+00 
1.110267e+00 
1.107573e+00 
1.105333e+00 
1.103570e+00 
1.102294e+00 
1.101510e+00 
1.101222e+00 
1.101429e+00 
1.102133e+00 
1.103332e+00 
1.105025e+00 
1.107211e+00 
1.109887e+00 
1.113050e+00 
1.116699e+00 
1.120830e+00 
1.125439e+00 
1.130523e+00 
1.136078e+00 
1.142099e+00 
1.148583e+00 
1.155523e+00 
1.162917e+00 
1.170757e+00 
1.179040e+00 
1.187758e+00 
1.196907e+00 
1.206481e+00 
1.216474e+00 
1.226878e+00 
1.237689e+00 
1.248900e+00 
1.260504e+00 
1.272496e+00 
1.284867e+00 
1.297612e+00 
1.310724e+00 
1.324197e+00 
1.338024e+00 
1.352198e+00 
1.366712e+00 
1.381561e+00 
1.396737e+00 
1.412234e+00 
1.428047e+00 
1.444167e+00 
1.460590e+00 
1.477309e+00 
1.494318e+00 
2.368339e+00 
2.342869e+00 
2.317515e+00 
2.292280e+00 
2.267167e+00 
2.242179e+00 
2.217319e+00 
2.192590e+00 
2.167996e+00 
2.143541e+00 
2.119227e+00 
2.095058e+00 
2.071038e+00 
2.047170e+00 
2.023459e+00 
1.999909e+00 
1.976523e+00 
1.953306e+00 
1.930262e+00 
1.907396e+00 
1.884711e+00 
1.862213e+00 
1.839905e+00 
1.817794e+00 
1.795884e+00 
1.774180e+00 
1.752687e+00 
1.731411e+00 
1.710356e+00 
1.689530e+00 
1.668936e+00 
1.648582e+00 
1.628472e+00 
1.608614e+00 
1.589013e+00 
1.569675e+00 
1.550608e+00 
1.531818e+00 
1.513311e+00 
1.495094e+00 
1.477175e+00 
1.459560e+00 
1.442256e+00 
1.425271e+00 
1.408613e+00 
1.392288e+00 
1.376305e+00 
1.360670e+00 
1.345393e+00 
1.330480e+00 
1.315939e+00 
1.301779e+00 
1.288007e+00 
1.274631e+00 
1.261659e+00 
1.249100e+00 
1.236961e+00 
1.225251e+00 
1.213976e+00 
1.203145e+00 
1.192767e+00 
1.182847e+00 
1.173395e+00 
1.164416e+00 
1.155919e+00 
1.147911e+00 
1.140397e+00 
1.133382e+00 
1.126871e+00 
1.120860e+00 
1.115339e+00 
1.110282e+00 
1.105637e+00 
1.101323e+00 
1.097221e+00 
1.093214e+00 
1.089268e+00 
1.085466e+00 
1.081921e+00 
1.078730e+00 
1.075957e+00 
1.073643e+00 
1.071809e+00 
1.070469e+00 
1.069629e+00 
1.069293e+00 
1.069461e+00 
1.070135e+00 
1.071313e+00 
1.072994e+00 
1.075177e+00 
1.077860e+00 
1.081041e+00 
1.084716e+00 
1.088882e+00 
1.093537e+00 
1.098676e+00 
1.104295e+00 
1.110390e+00 
1.116957e+00 
1.123989e+00 
1.131483e+00 
1.139433e+00 
1.147833e+00 
1.156678e+00 
1.165962e+00 
1.175678e+00 
1.185820e+00 
1.196382e+00 
1.207358e+00 
1.218740e+00 
1.230523e+00 
1.242699e+00 
1.255261e+00 
1.268203e+00 
1.281517e+00 
1.295197e+00 
1.309235e+00 
1.323626e+00 
1.338361e+00 
1.353434e+00 
1.368837e+00 
1.384565e+00 
1.400610e+00 
1.416966e+00 
1.433626e+00 
1.450583e+00 
1.467831e+00 
2.349623e+00 
2.324029e+00 
2.298549e+00 
2.273186e+00 
2.247943e+00 
2.222823e+00 
2.197829e+00 
2.172964e+00 
2.148232e+00 
2.123635e+00 
2.099178e+00 
2.074864e+00 
2.050696e+00 
2.026678e+00 
2.002815e+00 
1.979109e+00 
1.955565e+00 
1.932188e+00 
1.908980e+00 
1.885948e+00 
1.863094e+00 
1.840425e+00 
1.817944e+00 
1.795656e+00 
1.773567e+00 
1.751681e+00 
1.730003e+00 
1.708540e+00 
1.687296e+00 
1.666277e+00 
1.645489e+00 
1.624937e+00 
1.604629e+00 
1.584569e+00 
1.564764e+00 
1.545221e+00 
1.525947e+00 
1.506947e+00 
1.488229e+00 
1.469800e+00 
1.451667e+00 
1.433837e+00 
1.416317e+00 
1.399115e+00 
1.382239e+00 
1.365696e+00 
1.349494e+00 
1.333641e+00 
1.318145e+00 
1.303014e+00 
1.288256e+00 
1.273880e+00 
1.259893e+00 
1.246304e+00 
1.233122e+00 
1.220354e+00 
1.208010e+00 
1.196097e+00 
1.184624e+00 
1.173599e+00 
1.163031e+00 
1.152927e+00 
1.143296e+00 
1.134146e+00 
1.125483e+00 
1.117316e+00 
1.109652e+00 
1.102495e+00 
1.095850e+00 
1.089715e+00 
1.084081e+00 
1.078920e+00 
1.074185e+00 
1.069788e+00 
1.065596e+00 
1.061471e+00 
1.057429e+00 
1.053535e+00 
1.049897e+00 
1.046610e+00 
1.043743e+00 
1.041339e+00 
1.039422e+00 
1.038008e+00 
1.037103e+00 
1.036710e+00 
1.036833e+00 
1.037470e+00 
1.038622e+00 
1.040289e+00 
1.042467e+00 
1.045155e+00 
1.048351e+00 
1.052051e+00 
1.056253e+00 
1.060953e+00 
1.066146e+00 
1.071829e+00 
1.077997e+00 
1.084646e+00 
1.091769e+00 
1.099363e+00 
1.107420e+00 
1.115936e+00 
1.124905e+00 
1.134320e+00 
1.144175e+00 
1.154463e+00 
1.165179e+00 
1.176316e+00 
1.187865e+00 
1.199822e+00 
1.212179e+00 
1.224928e+00 
1.238063e+00 
1.251576e+00 
1.265461e+00 
1.279710e+00 
1.294316e+00 
1.309272e+00 
1.324570e+00 
1.340204e+00 
1.356166e+00 
1.372449e+00 
1.389046e+00 
1.405950e+00 
1.423155e+00 
1.440653e+00 
2.331396e+00 
2.305673e+00 
2.280061e+00 
2.254564e+00 
2.229185e+00 
2.203926e+00 
2.178790e+00 
2.153781e+00 
2.128902e+00 
2.104156e+00 
2.079546e+00 
2.055076e+00 
2.030750e+00 
2.006571e+00 
1.982543e+00 
1.958670e+00 
1.934956e+00 
1.911405e+00 
1.888021e+00 
1.864809e+00 
1.841773e+00 
1.818917e+00 
1.796247e+00 
1.773768e+00 
1.751484e+00 
1.729400e+00 
1.707522e+00 
1.685855e+00 
1.664404e+00 
1.643176e+00 
1.622176e+00 
1.601410e+00 
1.580884e+00 
1.560605e+00 
1.540578e+00 
1.520811e+00 
1.501310e+00 
1.482082e+00 
1.463134e+00 
1.444473e+00 
1.426106e+00 
1.408041e+00 
1.390285e+00 
1.372846e+00 
1.355732e+00 
1.338951e+00 
1.322510e+00 
1.306419e+00 
1.290685e+00 
1.275316e+00 
1.260321e+00 
1.245710e+00 
1.231489e+00 
1.217669e+00 
1.204258e+00 
1.191265e+00 
1.178698e+00 
1.166567e+00 
1.154880e+00 
1.143646e+00 
1.132875e+00 
1.122573e+00 
1.112751e+00 
1.103417e+00 
1.094578e+00 
1.086243e+00 
1.078418e+00 
1.071110e+00 
1.064324e+00 
1.058058e+00 
1.052303e+00 
1.047034e+00 
1.042203e+00 
1.037718e+00 
1.033436e+00 
1.029213e+00 
1.025082e+00 
1.021099e+00 
1.017366e+00 
1.013984e+00 
1.011026e+00 
1.008537e+00 
1.006545e+00 
1.005064e+00 
1.004102e+00 
1.003664e+00 
1.003751e+00 
1.004365e+00 
1.005503e+00 
1.007166e+00 
1.009351e+00 
1.012056e+00 
1.015279e+00 
1.019016e+00 
1.023263e+00 
1.028018e+00 
1.033274e+00 
1.039029e+00 
1.045277e+00 
1.052012e+00 
1.059231e+00 
1.066926e+00 
1.075093e+00 
1.083725e+00 
1.092816e+00 
1.102359e+00 
1.112350e+00 
1.122779e+00 
1.133642e+00 
1.144931e+00 
1.156640e+00 
1.168760e+00 
1.181286e+00 
1.194211e+00 
1.207526e+00 
1.221225e+00 
1.235300e+00 
1.249745e+00 
1.264552e+00 
1.279714e+00 
1.295222e+00 
1.311071e+00 
1.327253e+00 
1.343760e+00 
1.360586e+00 
1.377723e+00 
1.395163e+00 
1.412901e+00 
2.313566e+00 
2.287703e+00 
2.261949e+00 
2.236306e+00 
2.210778e+00 
2.185368e+00 
2.160078e+00 
2.134911e+00 
2.109871e+00 
2.084961e+00 
2.060184e+00 
2.035544e+00 
2.011045e+00 
1.986689e+00 
1.962482e+00 
1.938426e+00 
1.914525e+00 
1.890785e+00 
1.867208e+00 
1.843800e+00 
1.820565e+00 
1.797508e+00 
1.774633e+00 
1.751945e+00 
1.729450e+00 
1.707152e+00 
1.685056e+00 
1.663169e+00 
1.641496e+00 
1.620043e+00 
1.598815e+00 
1.577819e+00 
1.557060e+00 
1.536546e+00 
1.516282e+00 
1.496276e+00 
1.476534e+00 
1.457064e+00 
1.437871e+00 
1.418965e+00 
1.400351e+00 
1.382038e+00 
1.364034e+00 
1.346346e+00 
1.328983e+00 
1.311952e+00 
1.295263e+00 
1.278923e+00 
1.262941e+00 
1.247326e+00 
1.232086e+00 
1.217231e+00 
1.202771e+00 
1.188713e+00 
1.175067e+00 
1.161843e+00 
1.149049e+00 
1.136696e+00 
1.124792e+00 
1.113347e+00 
1.102369e+00 
1.091869e+00 
1.081856e+00 
1.072337e+00 
1.063321e+00 
1.054818e+00 
1.046834e+00 
1.039376e+00 
1.032449e+00 
1.026052e+00 
1.020179e+00 
1.014804e+00 
1.009881e+00 
1.005316e+00 
1.000972e+00 
9.967111e-01 
9.925275e-01 
9.884807e-01 
9.846775e-01 
9.812246e-01 
9.781997e-01 
9.756521e-01 
9.736099e-01 
9.720891e-01 
9.710982e-01 
9.706417e-01 
9.707212e-01 
9.713372e-01 
9.724887e-01 
9.741743e-01 
9.763919e-01 
9.791387e-01 
9.824115e-01 
9.862069e-01 
9.905208e-01 
9.953489e-01 
1.000687e+00 
1.006529e+00 
1.012870e+00 
1.019706e+00 
1.027030e+00 
1.034836e+00 
1.043118e+00 
1.051870e+00 
1.061086e+00 
1.070759e+00 
1.080882e+00 
1.091449e+00 
1.102453e+00 
1.113887e+00 
1.125744e+00 
1.138016e+00 
1.150698e+00 
1.163782e+00 
1.177260e+00 
1.191125e+00 
1.205371e+00 
1.219990e+00 
1.234974e+00 
1.250317e+00 
1.266011e+00 
1.282049e+00 
1.298424e+00 
1.315128e+00 
1.332154e+00 
1.349495e+00 
1.367144e+00 
1.385093e+00 
2.295958e+00 
2.269941e+00 
2.244031e+00 
2.218229e+00 
2.192539e+00 
2.166963e+00 
2.141505e+00 
2.116167e+00 
2.090953e+00 
2.065865e+00 
2.040909e+00 
2.016085e+00 
1.991400e+00 
1.966855e+00 
1.942455e+00 
1.918204e+00 
1.894106e+00 
1.870165e+00 
1.846385e+00 
1.822770e+00 
1.799326e+00 
1.776058e+00 
1.752968e+00 
1.730064e+00 
1.707349e+00 
1.684830e+00 
1.662511e+00 
1.640398e+00 
1.618497e+00 
1.596813e+00 
1.575353e+00 
1.554123e+00 
1.533129e+00 
1.512378e+00 
1.491875e+00 
1.471629e+00 
1.451646e+00 
1.431933e+00 
1.412497e+00 
1.393346e+00 
1.374487e+00 
1.355928e+00 
1.337678e+00 
1.319744e+00 
1.302135e+00 
1.284859e+00 
1.267924e+00 
1.251340e+00 
1.235115e+00 
1.219259e+00 
1.203780e+00 
1.188689e+00 
1.173994e+00 
1.159705e+00 
1.145832e+00 
1.132384e+00 
1.119372e+00 
1.106805e+00 
1.094693e+00 
1.083045e+00 
1.071871e+00 
1.061181e+00 
1.050985e+00 
1.041291e+00 
1.032108e+00 
1.023445e+00 
1.015310e+00 
1.007710e+00 
1.000650e+00 
9.941309e-01 
9.881450e-01 
9.826716e-01 
9.776639e-01 
9.730342e-01 
9.686549e-01 
9.643968e-01 
9.602173e-01 
9.561556e-01 
9.523219e-01 
9.488358e-01 
9.457795e-01 
9.432077e-01 
9.411491e-01 
9.396212e-01 
9.386334e-01 
9.381900e-01 
9.382928e-01 
9.389418e-01 
9.401356e-01 
9.418725e-01 
9.441498e-01 
9.469643e-01 
9.503125e-01 
9.541902e-01 
9.585931e-01 
9.635163e-01 
9.689548e-01 
9.749031e-01 
9.813556e-01 
9.883065e-01 
9.957497e-01 
1.003679e+00 
1.012088e+00 
1.020969e+00 
1.030318e+00 
1.040126e+00 
1.050386e+00 
1.061093e+00 
1.072238e+00 
1.083815e+00 
1.095817e+00 
1.108237e+00 
1.121068e+00 
1.134301e+00 
1.147932e+00 
1.161951e+00 
1.176352e+00 
1.191128e+00 
1.206272e+00 
1.221776e+00 
1.237634e+00 
1.253838e+00 
1.270380e+00 
1.287255e+00 
1.304454e+00 
1.321971e+00 
1.339798e+00 
1.357929e+00 
2.278428e+00 
2.252250e+00 
2.226177e+00 
2.200209e+00 
2.174351e+00 
2.148604e+00 
2.122973e+00 
2.097460e+00 
2.072068e+00 
2.046800e+00 
2.021661e+00 
1.996653e+00 
1.971780e+00 
1.947046e+00 
1.922455e+00 