# vtk DataFile Version 2.0 
Quadtree Mesh 
ASCII 
DATASET UNSTRUCTURED_GRID 
POINTS 16384 double 
-1.000000e+00 -1.000000e+00 0.000000e+00
-9.842520e-01 -1.000000e+00 0.000000e+00
-9.685039e-01 -1.000000e+00 0.000000e+00
-9.527559e-01 -1.000000e+00 0.000000e+00
-9.370079e-01 -1.000000e+00 0.000000e+00
-9.212598e-01 -1.000000e+00 0.000000e+00
-9.055118e-01 -1.000000e+00 0.000000e+00
-8.897638e-01 -1.000000e+00 0.000000e+00
-8.740157e-01 -1.000000e+00 0.000000e+00
-8.582677e-01 -1.000000e+00 0.000000e+00
-8.425197e-01 -1.000000e+00 0.000000e+00
-8.267717e-01 -1.000000e+00 0.000000e+00
-8.110236e-01 -1.000000e+00 0.000000e+00
-7.952756e-01 -1.000000e+00 0.000000e+00
-7.795276e-01 -1.000000e+00 0.000000e+00
-7.637795e-01 -1.000000e+00 0.000000e+00
-7.480315e-01 -1.000000e+00 0.000000e+00
-7.322835e-01 -1.000000e+00 0.000000e+00
-7.165354e-01 -1.000000e+00 0.000000e+00
-7.007874e-01 -1.000000e+00 0.000000e+00
-6.850394e-01 -1.000000e+00 0.000000e+00
-6.692913e-01 -1.000000e+00 0.000000e+00
-6.535433e-01 -1.000000e+00 0.000000e+00
-6.377953e-01 -1.000000e+00 0.000000e+00
-6.220472e-01 -1.000000e+00 0.000000e+00
-6.062992e-01 -1.000000e+00 0.000000e+00
-5.905512e-01 -1.000000e+00 0.000000e+00
-5.748031e-01 -1.000000e+00 0.000000e+00
-5.590551e-01 -1.000000e+00 0.000000e+00
-5.433071e-01 -1.000000e+00 0.000000e+00
-5.275591e-01 -1.000000e+00 0.000000e+00
-5.118110e-01 -1.000000e+00 0.000000e+00
-4.960630e-01 -1.000000e+00 0.000000e+00
-4.803150e-01 -1.000000e+00 0.000000e+00
-4.645669e-01 -1.000000e+00 0.000000e+00
-4.488189e-01 -1.000000e+00 0.000000e+00
-4.330709e-01 -1.000000e+00 0.000000e+00
-4.173228e-01 -1.000000e+00 0.000000e+00
-4.015748e-01 -1.000000e+00 0.000000e+00
-3.858268e-01 -1.000000e+00 0.000000e+00
-3.700787e-01 -1.000000e+00 0.000000e+00
-3.543307e-01 -1.000000e+00 0.000000e+00
-3.385827e-01 -1.000000e+00 0.000000e+00
-3.228346e-01 -1.000000e+00 0.000000e+00
-3.070866e-01 -1.000000e+00 0.000000e+00
-2.913386e-01 -1.000000e+00 0.000000e+00
-2.755906e-01 -1.000000e+00 0.000000e+00
-2.598425e-01 -1.000000e+00 0.000000e+00
-2.440945e-01 -1.000000e+00 0.000000e+00
-2.283465e-01 -1.000000e+00 0.000000e+00
-2.125984e-01 -1.000000e+00 0.000000e+00
-1.968504e-01 -1.000000e+00 0.000000e+00
-1.811024e-01 -1.000000e+00 0.000000e+00
-1.653543e-01 -1.000000e+00 0.000000e+00
-1.496063e-01 -1.000000e+00 0.000000e+00
-1.338583e-01 -1.000000e+00 0.000000e+00
-1.181102e-01 -1.000000e+00 0.000000e+00
-1.023622e-01 -1.000000e+00 0.000000e+00
-8.661417e-02 -1.000000e+00 0.000000e+00
-7.086614e-02 -1.000000e+00 0.000000e+00
-5.511811e-02 -1.000000e+00 0.000000e+00
-3.937008e-02 -1.000000e+00 0.000000e+00
-2.362205e-02 -1.000000e+00 0.000000e+00
-7.874016e-03 -1.000000e+00 0.000000e+00
7.874016e-03 -1.000000e+00 0.000000e+00
2.362205e-02 -1.000000e+00 0.000000e+00
3.937008e-02 -1.000000e+00 0.000000e+00
5.511811e-02 -1.000000e+00 0.000000e+00
7.086614e-02 -1.000000e+00 0.000000e+00
8.661417e-02 -1.000000e+00 0.000000e+00
1.023622e-01 -1.000000e+00 0.000000e+00
1.181102e-01 -1.000000e+00 0.000000e+00
1.338583e-01 -1.000000e+00 0.000000e+00
1.496063e-01 -1.000000e+00 0.000000e+00
1.653543e-01 -1.000000e+00 0.000000e+00
1.811024e-01 -1.000000e+00 0.000000e+00
1.968504e-01 -1.000000e+00 0.000000e+00
2.125984e-01 -1.000000e+00 0.000000e+00
2.283465e-01 -1.000000e+00 0.000000e+00
2.440945e-01 -1.000000e+00 0.000000e+00
2.598425e-01 -1.000000e+00 0.000000e+00
2.755906e-01 -1.000000e+00 0.000000e+00
2.913386e-01 -1.000000e+00 0.000000e+00
3.070866e-01 -1.000000e+00 0.000000e+00
3.228346e-01 -1.000000e+00 0.000000e+00
3.385827e-01 -1.000000e+00 0.000000e+00
3.543307e-01 -1.000000e+00 0.000000e+00
3.700787e-01 -1.000000e+00 0.000000e+00
3.858268e-01 -1.000000e+00 0.000000e+00
4.015748e-01 -1.000000e+00 0.000000e+00
4.173228e-01 -1.000000e+00 0.000000e+00
4.330709e-01 -1.000000e+00 0.000000e+00
4.488189e-01 -1.000000e+00 0.000000e+00
4.645669e-01 -1.000000e+00 0.000000e+00
4.803150e-01 -1.000000e+00 0.000000e+00
4.960630e-01 -1.000000e+00 0.000000e+00
5.118110e-01 -1.000000e+00 0.000000e+00
5.275591e-01 -1.000000e+00 0.000000e+00
5.433071e-01 -1.000000e+00 0.000000e+00
5.590551e-01 -1.000000e+00 0.000000e+00
5.748031e-01 -1.000000e+00 0.000000e+00
5.905512e-01 -1.000000e+00 0.000000e+00
6.062992e-01 -1.000000e+00 0.000000e+00
6.220472e-01 -1.000000e+00 0.000000e+00
6.377953e-01 -1.000000e+00 0.000000e+00
6.535433e-01 -1.000000e+00 0.000000e+00
6.692913e-01 -1.000000e+00 0.000000e+00
6.850394e-01 -1.000000e+00 0.000000e+00
7.007874e-01 -1.000000e+00 0.000000e+00
7.165354e-01 -1.000000e+00 0.000000e+00
7.322835e-01 -1.000000e+00 0.000000e+00
7.480315e-01 -1.000000e+00 0.000000e+00
7.637795e-01 -1.000000e+00 0.000000e+00
7.795276e-01 -1.000000e+00 0.000000e+00
7.952756e-01 -1.000000e+00 0.000000e+00
8.110236e-01 -1.000000e+00 0.000000e+00
8.267717e-01 -1.000000e+00 0.000000e+00
8.425197e-01 -1.000000e+00 0.000000e+00
8.582677e-01 -1.000000e+00 0.000000e+00
8.740157e-01 -1.000000e+00 0.000000e+00
8.897638e-01 -1.000000e+00 0.000000e+00
9.055118e-01 -1.000000e+00 0.000000e+00
9.212598e-01 -1.000000e+00 0.000000e+00
9.370079e-01 -1.000000e+00 0.000000e+00
9.527559e-01 -1.000000e+00 0.000000e+00
9.685039e-01 -1.000000e+00 0.000000e+00
9.842520e-01 -1.000000e+00 0.000000e+00
1.000000e+00 -1.000000e+00 0.000000e+00
-1.000000e+00 -9.842520e-01 0.000000e+00
-9.842520e-01 -9.842520e-01 0.000000e+00
-9.685039e-01 -9.842520e-01 0.000000e+00
-9.527559e-01 -9.842520e-01 0.000000e+00
-9.370079e-01 -9.842520e-01 0.000000e+00
-9.212598e-01 -9.842520e-01 0.000000e+00
-9.055118e-01 -9.842520e-01 0.000000e+00
-8.897638e-01 -9.842520e-01 0.000000e+00
-8.740157e-01 -9.842520e-01 0.000000e+00
-8.582677e-01 -9.842520e-01 0.000000e+00
-8.425197e-01 -9.842520e-01 0.000000e+00
-8.267717e-01 -9.842520e-01 0.000000e+00
-8.110236e-01 -9.842520e-01 0.000000e+00
-7.952756e-01 -9.842520e-01 0.000000e+00
-7.795276e-01 -9.842520e-01 0.000000e+00
-7.637795e-01 -9.842520e-01 0.000000e+00
-7.480315e-01 -9.842520e-01 0.000000e+00
-7.322835e-01 -9.842520e-01 0.000000e+00
-7.165354e-01 -9.842520e-01 0.000000e+00
-7.007874e-01 -9.842520e-01 0.000000e+00
-6.850394e-01 -9.842520e-01 0.000000e+00
-6.692913e-01 -9.842520e-01 0.000000e+00
-6.535433e-01 -9.842520e-01 0.000000e+00
-6.377953e-01 -9.842520e-01 0.000000e+00
-6.220472e-01 -9.842520e-01 0.000000e+00
-6.062992e-01 -9.842520e-01 0.000000e+00
-5.905512e-01 -9.842520e-01 0.000000e+00
-5.748031e-01 -9.842520e-01 0.000000e+00
-5.590551e-01 -9.842520e-01 0.000000e+00
-5.433071e-01 -9.842520e-01 0.000000e+00
-5.275591e-01 -9.842520e-01 0.000000e+00
-5.118110e-01 -9.842520e-01 0.000000e+00
-4.960630e-01 -9.842520e-01 0.000000e+00
-4.803150e-01 -9.842520e-01 0.000000e+00
-4.645669e-01 -9.842520e-01 0.000000e+00
-4.488189e-01 -9.842520e-01 0.000000e+00
-4.330709e-01 -9.842520e-01 0.000000e+00
-4.173228e-01 -9.842520e-01 0.000000e+00
-4.015748e-01 -9.842520e-01 0.000000e+00
-3.858268e-01 -9.842520e-01 0.000000e+00
-3.700787e-01 -9.842520e-01 0.000000e+00
-3.543307e-01 -9.842520e-01 0.000000e+00
-3.385827e-01 -9.842520e-01 0.000000e+00
-3.228346e-01 -9.842520e-01 0.000000e+00
-3.070866e-01 -9.842520e-01 0.000000e+00
-2.913386e-01 -9.842520e-01 0.000000e+00
-2.755906e-01 -9.842520e-01 0.000000e+00
-2.598425e-01 -9.842520e-01 0.000000e+00
-2.440945e-01 -9.842520e-01 0.000000e+00
-2.283465e-01 -9.842520e-01 0.000000e+00
-2.125984e-01 -9.842520e-01 0.000000e+00
-1.968504e-01 -9.842520e-01 0.000000e+00
-1.811024e-01 -9.842520e-01 0.000000e+00
-1.653543e-01 -9.842520e-01 0.000000e+00
-1.496063e-01 -9.842520e-01 0.000000e+00
-1.338583e-01 -9.842520e-01 0.000000e+00
-1.181102e-01 -9.842520e-01 0.000000e+00
-1.023622e-01 -9.842520e-01 0.000000e+00
-8.661417e-02 -9.842520e-01 0.000000e+00
-7.086614e-02 -9.842520e-01 0.000000e+00
-5.511811e-02 -9.842520e-01 0.000000e+00
-3.937008e-02 -9.842520e-01 0.000000e+00
-2.362205e-02 -9.842520e-01 0.000000e+00
-7.874016e-03 -9.842520e-01 0.000000e+00
7.874016e-03 -9.842520e-01 0.000000e+00
2.362205e-02 -9.842520e-01 0.000000e+00
3.937008e-02 -9.842520e-01 0.000000e+00
5.511811e-02 -9.842520e-01 0.000000e+00
7.086614e-02 -9.842520e-01 0.000000e+00
8.661417e-02 -9.842520e-01 0.000000e+00
1.023622e-01 -9.842520e-01 0.000000e+00
1.181102e-01 -9.842520e-01 0.000000e+00
1.338583e-01 -9.842520e-01 0.000000e+00
1.496063e-01 -9.842520e-01 0.000000e+00
1.653543e-01 -9.842520e-01 0.000000e+00
1.811024e-01 -9.842520e-01 0.000000e+00
1.968504e-01 -9.842520e-01 0.000000e+00
2.125984e-01 -9.842520e-01 0.000000e+00
2.283465e-01 -9.842520e-01 0.000000e+00
2.440945e-01 -9.842520e-01 0.000000e+00
2.598425e-01 -9.842520e-01 0.000000e+00
2.755906e-01 -9.842520e-01 0.000000e+00
2.913386e-01 -9.842520e-01 0.000000e+00
3.070866e-01 -9.842520e-01 0.000000e+00
3.228346e-01 -9.842520e-01 0.000000e+00
3.385827e-01 -9.842520e-01 0.000000e+00
3.543307e-01 -9.842520e-01 0.000000e+00
3.700787e-01 -9.842520e-01 0.000000e+00
3.858268e-01 -9.842520e-01 0.000000e+00
4.015748e-01 -9.842520e-01 0.000000e+00
4.173228e-01 -9.842520e-01 0.000000e+00
4.330709e-01 -9.842520e-01 0.000000e+00
4.488189e-01 -9.842520e-01 0.000000e+00
4.645669e-01 -9.842520e-01 0.000000e+00
4.803150e-01 -9.842520e-01 0.000000e+00
4.960630e-01 -9.842520e-01 0.000000e+00
5.118110e-01 -9.842520e-01 0.000000e+00
5.275591e-01 -9.842520e-01 0.000000e+00
5.433071e-01 -9.842520e-01 0.000000e+00
5.590551e-01 -9.842520e-01 0.000000e+00
5.748031e-01 -9.842520e-01 0.000000e+00
5.905512e-01 -9.842520e-01 0.000000e+00
6.062992e-01 -9.842520e-01 0.000000e+00
6.220472e-01 -9.842520e-01 0.000000e+00
6.377953e-01 -9.842520e-01 0.000000e+00
6.535433e-01 -9.842520e-01 0.000000e+00
6.692913e-01 -9.842520e-01 0.000000e+00
6.850394e-01 -9.842520e-01 0.000000e+00
7.007874e-01 -9.842520e-01 0.000000e+00
7.165354e-01 -9.842520e-01 0.000000e+00
7.322835e-01 -9.842520e-01 0.000000e+00
7.480315e-01 -9.842520e-01 0.000000e+00
7.637795e-01 -9.842520e-01 0.000000e+00
7.795276e-01 -9.842520e-01 0.000000e+00
7.952756e-01 -9.842520e-01 0.000000e+00
8.110236e-01 -9.842520e-01 0.000000e+00
[...]
POINT_DATA 16384 
SCALARS concentration double 1 
LOOKUP_TABLE default 
2.232964e+00 
2.208493e+00 
2.184144e+00 
2.159922e+00 
2.135828e+00 
2.111866e+00 
2.088037e+00 
2.064345e+00 
2.040794e+00 
2.017385e+00 
1.994121e+00 
1.971007e+00 
1.948045e+00 
1.925238e+00 
1.902590e+00 
1.880104e+00 
1.857784e+00 
1.835633e+00 
1.813655e+00 
1.791854e+00 
1.770234e+00 
1.748798e+00 
1.727551e+00 
1.706497e+00 
1.685641e+00 
1.664987e+00 
1.644540e+00 
1.624304e+00 
1.604286e+00 
1.584491e+00 
1.564923e+00 
1.545589e+00 
1.526494e+00 
1.507644e+00 
1.489046e+00 
1.470707e+00 
1.452631e+00 
1.434827e+00 
1.417301e+00 
1.400060e+00 
1.383111e+00 
1.366460e+00 
1.350116e+00 
1.334084e+00 
1.318373e+00 
1.302989e+00 
1.287939e+00 
1.273230e+00 
1.258870e+00 
1.244864e+00 
1.231221e+00 
1.217946e+00 
1.205047e+00 
1.192530e+00 
1.180402e+00 
1.168668e+00 
1.157336e+00 
1.146411e+00 
1.135899e+00 
1.125807e+00 
1.116140e+00 
1.106903e+00 
1.098102e+00 
1.089740e+00 
1.081823e+00 
1.074351e+00 
1.067326e+00 
1.060746e+00 
1.054604e+00 
1.048889e+00 
1.043578e+00 
1.038639e+00 
1.034022e+00 
1.029663e+00 
1.025483e+00 
1.021408e+00 
1.017391e+00 
1.013410e+00 
1.009458e+00 
1.005569e+00 
1.001811e+00 
9.982652e-01 
9.950010e-01 
9.920727e-01 
9.895176e-01 
9.873608e-01 
9.856183e-01 
9.843004e-01 
9.834133e-01 
9.829607e-01 
9.829440e-01 
9.833636e-01 
9.842190e-01 
9.855088e-01 
9.872309e-01 
9.893826e-01 
9.919608e-01 
9.949625e-01 
9.983848e-01 
1.002225e+00 
1.006481e+00 
1.011150e+00 
1.016229e+00 
1.021715e+00 
1.027605e+00 
1.033895e+00 
1.040581e+00 
1.047660e+00 
1.055127e+00 
1.062978e+00 
1.071208e+00 
1.079814e+00 
1.088791e+00 
1.098134e+00 
1.107840e+00 
1.117903e+00 
1.128319e+00 
1.139084e+00 
1.150193e+00 
1.161641e+00 
1.173424e+00 
1.185537e+00 
1.197975e+00 
1.210734e+00 
1.223808e+00 
1.237192e+00 
1.250883e+00 
1.264876e+00 
2.213355e+00 
2.188727e+00 
2.164219e+00 
2.139835e+00 
2.115577e+00 
2.091447e+00 
2.067449e+00 
2.043585e+00 
2.019858e+00 
1.996272e+00 
1.972829e+00 
1.949532e+00 
1.926384e+00 
1.903390e+00 
1.880551e+00 
1.857872e+00 
1.835356e+00 
1.813007e+00 
1.790828e+00 
1.768824e+00 
1.746999e+00 
1.725356e+00 
1.703900e+00 
1.682636e+00 
1.661568e+00 
1.640702e+00 
1.620042e+00 
1.599593e+00 
1.579362e+00 
1.559353e+00 
1.539573e+00 
1.520028e+00 
1.500723e+00 
1.481666e+00 
1.462863e+00 
1.444320e+00 
1.426045e+00 
1.408044e+00 
1.390325e+00 
1.372893e+00 
1.355758e+00 
1.338924e+00 
1.322401e+00 
1.306194e+00 
1.290311e+00 
1.274759e+00 
1.259545e+00 
1.244676e+00 
1.230158e+00 
1.215999e+00 
1.202205e+00 
1.188783e+00 
1.175740e+00 
1.163082e+00 
1.150816e+00 
1.138947e+00 
1.127483e+00 
1.116429e+00 
1.105792e+00 
1.095577e+00 
1.085790e+00 
1.076438e+00 
1.067524e+00 
1.059054e+00 
1.051032e+00 
1.043461e+00 
1.036342e+00 
1.029673e+00 
1.023450e+00 
1.017663e+00 
1.012291e+00 
1.007304e+00 
1.002654e+00 
9.982778e-01 
9.940964e-01 
9.900340e-01 
9.860385e-01 
9.820869e-01 
9.781640e-01 
9.742889e-01 
9.705339e-01 
9.669835e-01 
9.637126e-01 
9.607779e-01 
9.582189e-01 
9.560616e-01 
9.543232e-01 
9.530145e-01 
9.521423e-01 
9.517100e-01 
9.517193e-01 
9.521704e-01 
9.530626e-01 
9.543945e-01 
9.561638e-01 
9.583679e-01 
9.610037e-01 
9.640682e-01 
9.675583e-01 
9.714709e-01 
9.758030e-01 
9.805514e-01 
9.857128e-01 
9.912839e-01 
9.972609e-01 
1.003640e+00 
1.010418e+00 
1.017590e+00 
1.025153e+00 
1.033102e+00 
1.041433e+00 
1.050142e+00 
1.059225e+00 
1.068678e+00 
1.078496e+00 
1.088675e+00 
1.099210e+00 
1.110098e+00 
1.121332e+00 
1.132910e+00 
1.144825e+00 
1.157073e+00 
1.169650e+00 
1.182550e+00 
1.195769e+00 
1.209301e+00 
1.223142e+00 
1.237286e+00 
2.193885e+00 
2.169095e+00 
2.144424e+00 
2.119874e+00 
2.095447e+00 
2.071146e+00 
2.046974e+00 
2.022934e+00 
1.999028e+00 
1.975260e+00 
1.951633e+00 
1.928149e+00 
1.904811e+00 
1.881625e+00 
1.858591e+00 
1.835715e+00 
1.813000e+00 
1.790449e+00 
1.768067e+00 
1.745857e+00 
1.723825e+00 
1.701974e+00 
1.680309e+00 
1.658835e+00 
1.637557e+00 
1.616480e+00 
1.595610e+00 
1.574952e+00 
1.554513e+00 
1.534297e+00 
1.514313e+00 
1.494565e+00 
1.475060e+00 
1.455805e+00 
1.436808e+00 
1.418074e+00 
1.399611e+00 
1.381425e+00 
1.363524e+00 
1.345915e+00 
1.328605e+00 
1.311601e+00 
1.294910e+00 
1.278539e+00 
1.262495e+00 
1.246785e+00 
1.231415e+00 
1.216391e+00 
1.201720e+00 
1.187412e+00 
1.173472e+00 
1.159906e+00 
1.146721e+00 
1.133923e+00 
1.121518e+00 
1.109513e+00 
1.097915e+00 
1.086730e+00 
1.075963e+00 
1.065621e+00 
1.055710e+00 
1.046236e+00 
1.037204e+00 
1.028620e+00 
1.020488e+00 
1.012811e+00 
1.005592e+00 
9.988299e-01 
9.925209e-01 
9.866557e-01 
9.812170e-01 
9.761751e-01 
9.714847e-01 
9.670818e-01 
9.628886e-01 
9.588274e-01 
9.548426e-01 
9.509077e-01 
9.470079e-01 
9.431425e-01 
9.393873e-01 
9.358314e-01 
9.325531e-01 
9.296126e-01 
9.270511e-01 
9.248961e-01 
9.231658e-01 
9.218715e-01 
9.210203e-01 
9.206155e-01 
9.206588e-01 
9.211500e-01 
9.220879e-01 
9.234708e-01 
9.252962e-01 
9.275610e-01 
9.302621e-01 
9.333960e-01 
9.369592e-01 
9.409481e-01 
9.453593e-01 
9.501891e-01 
9.554338e-01 
9.610896e-01 
9.671527e-01 
9.736194e-01 
9.804857e-01 
9.877478e-01 
9.954019e-01 
1.003444e+00 
1.011870e+00 
1.020676e+00 
1.029859e+00 
1.039414e+00 
1.049337e+00 
1.059623e+00 
1.070270e+00 
1.081272e+00 
1.092625e+00 
1.104324e+00 
1.116365e+00 
1.128743e+00 
1.141453e+00 
1.154491e+00 
1.167850e+00 
1.181527e+00 
1.195516e+00 
1.209812e+00 
2.174544e+00 
2.149591e+00 
2.124753e+00 
2.100033e+00 
2.075435e+00 
2.050960e+00 
2.026611e+00 
2.002391e+00 
1.978303e+00 
1.954350e+00 
1.930535e+00 
1.906861e+00 
1.883332e+00 
1.859951e+00 
1.836721e+00 
1.813646e+00 
1.790730e+00 
1.767978e+00 
1.745392e+00 
1.722979e+00 
1.700741e+00 
1.678685e+00 
1.656815e+00 
1.635137e+00 
1.613656e+00 
1.592376e+00 
1.571305e+00 
1.550447e+00 
1.529810e+00 
1.509399e+00 
1.489221e+00 
1.469283e+00 
1.449591e+00 
1.430152e+00 
1.410973e+00 
1.392061e+00 
1.373423e+00 
1.355066e+00 
1.336996e+00 
1.319221e+00 
1.301748e+00 
1.284583e+00 
1.267733e+00 
1.251206e+00 
1.235007e+00 
1.219143e+00 
1.203616e+00 
1.188434e+00 
1.173608e+00 
1.159149e+00 
1.145061e+00 
1.131347e+00 
1.118016e+00 
1.105072e+00 
1.092523e+00 
1.080376e+00 
1.068636e+00 
1.057310e+00 
1.046405e+00 
1.035928e+00 
1.025883e+00 
1.016279e+00 
1.007120e+00 
9.984119e-01 
9.901607e-01 
9.823701e-01 
9.750429e-01 
9.681797e-01 
9.617775e-01 
9.558285e-01 
9.503162e-01 
9.452125e-01 
9.404728e-01 
9.360339e-01 
9.318184e-01 
9.277478e-01 
9.237633e-01 
9.198360e-01 
9.159516e-01 
9.120945e-01 
9.083407e-01 
9.047826e-01 
9.015019e-01 
8.985622e-01 
8.960065e-01 
8.938639e-01 
8.921534e-01 
8.908869e-01 
8.900713e-01 
8.897098e-01 
8.898033e-01 
8.903511e-01 
8.913514e-01 
8.928017e-01 
8.946989e-01 
8.970394e-01 
8.998194e-01 
9.030349e-01 
9.066819e-01 
9.107562e-01 
9.152536e-01 
9.201702e-01 
9.255017e-01 
9.312443e-01 
9.373939e-01 
9.439466e-01 
9.508986e-01 
9.582462e-01 
9.659856e-01 
9.741133e-01 
9.826256e-01 
9.915190e-01 
1.000790e+00 
1.010435e+00 
1.020449e+00 
1.030831e+00 
1.041574e+00 
1.052677e+00 
1.064134e+00 
1.075941e+00 
1.088094e+00 
1.100589e+00 
1.113420e+00 
1.126584e+00 
1.140074e+00 
1.153886e+00 
1.168015e+00 
1.182456e+00 
2.155337e+00 
2.130217e+00 
2.105211e+00 
2.080320e+00 
2.055548e+00 
2.030897e+00 
2.006369e+00 
1.981968e+00 
1.957697e+00 
1.933558e+00 
1.909555e+00 
1.885691e+00 
1.861970e+00 
1.838395e+00 
1.814970e+00 
1.791698e+00 
1.768585e+00 
1.745634e+00 
1.722850e+00 
1.700238e+00 
1.677802e+00 
1.655548e+00 
1.633484e+00 
1.611614e+00 
1.589942e+00 
1.568472e+00 
1.547211e+00 
1.526166e+00 
1.505343e+00 
1.484750e+00 
1.464393e+00 
1.444278e+00 
1.424412e+00 
1.404801e+00 
1.385454e+00 
1.366375e+00 
1.347573e+00 
1.329053e+00 
1.310824e+00 
1.292890e+00 
1.275259e+00 
1.257938e+00 
1.240933e+00 
1.224251e+00 
1.207896e+00 
1.191870e+00 
1.176172e+00 
1.160818e+00 
1.145826e+00 
1.131209e+00 
1.116963e+00 
1.103093e+00 
1.089605e+00 
1.076505e+00 
1.063800e+00 
1.051498e+00 
1.039604e+00 
1.028125e+00 
1.017070e+00 
1.006443e+00 
9.962524e-01 
9.865048e-01 
9.772067e-01 
9.683644e-01 
9.599839e-01 
9.520702e-01 
9.446269e-01 
9.376555e-01 
9.311543e-01 
9.251159e-01 
9.195251e-01 
9.143543e-01 
9.095594e-01 
9.050776e-01 
9.008329e-01 
8.967465e-01 
8.927574e-01 
8.888340e-01 
8.849597e-01 
8.811140e-01 
8.773698e-01 
8.738203e-01 
8.705503e-01 
8.676264e-01 
8.650940e-01 
8.629835e-01 
8.613146e-01 
8.600992e-01 
8.593437e-01 
8.590505e-01 
8.592196e-01 
8.598492e-01 
8.609366e-01 
8.624782e-01 
8.644699e-01 
8.669072e-01 
8.697856e-01 
8.731001e-01 
8.768459e-01 
8.810183e-01 
8.856124e-01 
8.906238e-01 
8.960478e-01 
9.018802e-01 
9.081169e-01 
9.147539e-01 
9.217875e-01 
9.292141e-01 
9.370304e-01 
9.452329e-01 
9.538186e-01 
9.627845e-01 
9.721274e-01 
9.818443e-01 
9.919322e-01 
1.002388e+00 
1.013208e+00 
1.024390e+00 
1.035930e+00 
1.047824e+00 
1.060068e+00 
1.072658e+00 
1.085590e+00 
1.098860e+00 
1.112462e+00 
1.126392e+00 
1.140645e+00 
1.155215e+00 
2.136281e+00 
2.110995e+00 
2.085820e+00 
2.060757e+00 
2.035811e+00 
2.010983e+00 
1.986277e+00 
1.961696e+00 
1.937242e+00 
1.912918e+00 
1.888729e+00 
1.864678e+00 
1.840767e+00 
1.817002e+00 
1.793386e+00 
1.769924e+00 
1.746619e+00 
1.723477e+00 
1.700502e+00 
1.677700e+00 
1.655076e+00 
1.632639e+00 
1.610398e+00 
1.588353e+00 
1.566503e+00 
1.544855e+00 
1.523418e+00 
1.502198e+00 
1.481203e+00 
1.460440e+00 
1.439914e+00 
1.419633e+00 
1.399603e+00 
1.379830e+00 
1.360321e+00 
1.341083e+00 
1.322121e+00 
1.303443e+00 
1.285055e+00 
1.266963e+00 
1.249174e+00 
1.231694e+00 
1.214530e+00 
1.197686e+00 
1.181159e+00 
1.164943e+00 
1.149045e+00 
1.133498e+00 
1.118328e+00 
1.103538e+00 
1.089122e+00 
1.075080e+00 
1.061419e+00 
1.048147e+00 
1.035271e+00 
1.022797e+00 
1.010733e+00 
9.990859e-01 
9.878633e-01 
9.770725e-01 
9.667211e-01 
9.568167e-01 
9.473667e-01 
9.383785e-01 
9.298589e-01 
9.218140e-01 
9.142484e-01 
9.071643e-01 
9.005609e-01 
8.944315e-01 
8.887611e-01 
8.835224e-01 
8.786710e-01 
8.741452e-01 
8.698707e-01 
8.657693e-01 
8.617777e-01 
8.578610e-01 
8.539955e-01 
8.501707e-01 
8.464525e-01 
8.429316e-01 
8.396951e-01 
8.368127e-01 
8.343321e-01 
8.322846e-01 
8.306903e-01 
8.295604e-01 
8.289001e-01 
8.287104e-01 
8.289898e-01 
8.297352e-01 
8.309422e-01 
8.326061e-01 
8.347213e-01 
8.372823e-01 
8.402833e-01 
8.437185e-01 
8.475821e-01 
8.518684e-01 
8.565721e-01 
8.616880e-01 
8.672111e-01 
8.731368e-01 
8.794610e-01 
8.861795e-01 
8.932888e-01 
9.007856e-01 
9.086668e-01 
9.169297e-01 
9.255716e-01 
9.345902e-01 
9.439833e-01 
9.537485e-01 
9.638837e-01 
9.743866e-01 
9.852551e-01 
9.964865e-01 
1.008078e+00 
1.020028e+00 
1.032332e+00 
1.044987e+00 
1.057990e+00 
1.071336e+00 
1.085023e+00 
1.099044e+00 
1.113395e+00 
1.128071e+00 
2.117408e+00 
2.091955e+00 
2.066611e+00 
2.041378e+00 
2.016258e+00 
1.991256e+00 
1.966373e+00 
1.941613e+00 
1.916979e+00 
1.892474e+00 
1.868102e+00 
1.843867e+00 
1.819773e+00 
1.795824e+00 
1.772023e+00 
1.748377e+00 
1.724888e+00 
1.701563e+00 
1.678405e+00 
1.655423e+00 
1.632628e+00 
1.610031e+00 
1.587635e+00 
1.565430e+00 
1.543415e+00 
1.521599e+00 
1.499993e+00 
1.478608e+00 
1.457449e+00 
1.436522e+00 
1.415834e+00 
1.395391e+00 
1.375199e+00 
1.355265e+00 
1.335595e+00 
1.316194e+00 
1.297070e+00 
1.278228e+00 
1.259675e+00 
1.241416e+00 
1.223459e+00 
1.205809e+00 
1.188471e+00 
1.171441e+00 
1.154704e+00 
1.138257e+00 
1.122131e+00 
1.106376e+00 
1.091014e+00 
1.076035e+00 
1.061429e+00 
1.047197e+00 
1.033346e+00 
1.019883e+00 
1.006816e+00 
9.941525e-01 
9.819001e-01 
9.700667e-01 
9.586604e-01 
9.476895e-01 
9.371627e-01 
9.270886e-01 
9.174759e-01 
9.083332e-01 
8.996686e-01 
8.914891e-01 
8.838003e-01 
8.766052e-01 
8.699032e-01 
8.636878e-01 
8.579439e-01 
8.526435e-01 
8.477420e-01 
8.431789e-01 
8.388824e-01 
8.347752e-01 
8.307922e-01 
8.268950e-01 
8.230517e-01 
8.192702e-01 
8.156062e-01 
8.121461e-01 
8.089787e-01 
8.061770e-01 
8.037904e-01 
8.018511e-01 
8.003782e-01 
7.993814e-01 
7.988639e-01 
7.988244e-01 
7.992595e-01 
8.001641e-01 
8.015321e-01 
8.033569e-01 
8.056317e-01 
8.083493e-01 
8.115028e-01 
8.150851e-01 
8.190894e-01 
8.235092e-01 
8.283383e-01 
8.335708e-01 
8.392015e-01 
8.452255e-01 
8.516381e-01 
8.584357e-01 
8.656146e-01 
8.731718e-01 
8.811048e-01 
8.894113e-01 
8.980896e-01 
9.071379e-01 
9.165549e-01 
9.263395e-01 
9.364905e-01 
9.470068e-01 
9.578873e-01 
9.691307e-01 
9.807356e-01 
9.927005e-01 
1.005023e+00 
1.017702e+00 
1.030734e+00 
1.044116e+00 
1.057844e+00 
1.071916e+00 
1.086327e+00 
1.101072e+00 
2.098746e+00 
2.073127e+00 
2.047615e+00 
2.022212e+00 
1.996921e+00 
1.971745e+00 
1.946687e+00 
1.921751e+00 
1.896940e+00 
1.872257e+00 
1.847707e+00 
1.823293e+00 
1.799020e+00 
1.774892e+00 
1.750913e+00 
1.727088e+00 
1.703422e+00 
1.679920e+00 
1.656589e+00 
1.633444e+00 
1.610502e+00 
1.587770e+00 
1.565232e+00 
1.542873e+00 
1.520695e+00 
1.498713e+00 
1.476943e+00 
1.455393e+00 
1.434068e+00 
1.412976e+00 
1.392122e+00 
1.371512e+00 
1.351152e+00 
1.331048e+00 
1.311206e+00 
1.291632e+00 
1.272331e+00 
1.253310e+00 
1.234575e+00 
1.216132e+00 
1.197988e+00 
1.180146e+00 
1.162605e+00 
1.145348e+00 
1.128358e+00 
1.111655e+00 
1.095294e+00 
1.079327e+00 
1.063760e+00 
1.048575e+00 
1.033761e+00 
1.019319e+00 
1.005259e+00 
9.915870e-01 
9.783119e-01 
9.654416e-01 
9.529847e-01 
9.409498e-01 
9.293463e-01 
9.181838e-01 
9.074723e-01 
8.972221e-01 
8.874435e-01 
8.781467e-01 
8.693408e-01 
8.610341e-01 
8.532326e-01 
8.459397e-01 
8.391543e-01 
8.328693e-01 
8.270685e-01 
8.217228e-01 
8.167874e-01 
8.122037e-01 
8.079026e-01 
8.038086e-01 
7.998580e-01 
7.960110e-01 
7.922334e-01 
7.885371e-01 
7.849705e-01 
7.816174e-01 
7.785696e-01 
7.759034e-01 
7.736691e-01 
7.718983e-01 
7.706080e-01 
7.698050e-01 
7.694894e-01 
7.696573e-01 
7.703026e-01 
7.714178e-01 
7.729948e-01 
7.750253e-01 
7.775007e-01 
7.804123e-01 
7.837519e-01 
7.875111e-01 
7.916822e-01 
7.962576e-01 
8.012305e-01 
8.065945e-01 
8.123436e-01 
8.184727e-01 
8.249773e-01 
8.318533e-01 
8.390975e-01 
8.467073e-01 
8.546804e-01 
8.630153e-01 
8.717108e-01 
8.807663e-01 
8.901813e-01 
8.999558e-01 
9.100899e-01 
9.205838e-01 
9.314376e-01 
9.426516e-01 
9.542258e-01 
9.661599e-01 
9.784536e-01 
9.911061e-01 
1.004116e+00 
1.017482e+00 
1.031201e+00 
1.045272e+00 
1.059690e+00 
1.074453e+00 
2.080301e+00 
2.054515e+00 
2.028834e+00 
2.003261e+00 
1.977798e+00 
1.952450e+00 
1.927219e+00 
1.902108e+00 
1.877122e+00 
1.852264e+00 
1.827539e+00 
1.802950e+00 
1.778502e+00 
1.754198e+00 
1.730045e+00 
1.706046e+00 
1.682207e+00 
1.658534e+00 
1.635043e+00 
1.611758e+00 
1.588692e+00 
1.565832e+00 
1.543146e+00 
1.520622e+00 
1.498274e+00 
1.476121e+00 
1.454179e+00 
1.432456e+00 
1.410958e+00 
1.389689e+00 
1.368657e+00 
1.347866e+00 
1.327322e+00 
1.307032e+00 
1.287000e+00 
1.267232e+00 
1.247735e+00 
1.228514e+00 
1.209576e+00 
1.190927e+00 
1.172571e+00 
1.154510e+00 
1.136731e+00 
1.119212e+00 
1.101957e+00 
1.085009e+00 
1.068431e+00 
1.052256e+00 
1.036475e+00 
1.021069e+00 
1.006031e+00 
9.913666e-01 
9.770833e-01 
9.631895e-01 
9.496941e-01 
9.366060e-01 
9.239349e-01 
9.116911e-01 
8.998853e-01 
8.885293e-01 
8.776351e-01 
8.672150e-01 
8.572812e-01 
8.478454e-01 
8.389178e-01 
8.305072e-01 
8.226197e-01 
8.152577e-01 
8.084189e-01 
8.020943e-01 
7.962656e-01 
7.909023e-01 
7.859597e-01 
7.813816e-01 
7.771026e-01 
7.730519e-01 
7.691721e-01 
7.654251e-01 
7.617769e-01 
7.582226e-01 
7.548083e-01 
7.516199e-01 
7.487540e-01 
7.462896e-01 
7.442765e-01 
7.427438e-01 
7.417048e-01 
7.411620e-01 
7.411117e-01 
7.415465e-01 
7.424576e-01 
7.438349e-01 
7.456684e-01 
7.479478e-01 
7.506629e-01 
7.538038e-01 
7.573608e-01 
7.613246e-01 
7.656864e-01 
7.704379e-01 
7.755716e-01 
7.810805e-01 
7.869583e-01 
7.931997e-01 
7.998000e-01 
8.067551e-01 
8.140621e-01 
8.217185e-01 
8.297226e-01 
8.380734e-01 
8.467704e-01 
8.558139e-01 
8.652043e-01 
8.749428e-01 
8.850306e-01 
8.954692e-01 
9.062603e-01 
9.174057e-01 
9.289068e-01 
9.407651e-01 
9.529819e-01 
9.655579e-01 
9.784936e-01 
9.917891e-01 
1.005444e+00 
1.019456e+00 
1.033824e+00 
1.048546e+00 
2.062031e+00 
2.036077e+00 
2.010226e+00 
1.984483e+00 
1.958849e+00 
1.933328e+00 
1.907924e+00 
1.882641e+00 
1.857482e+00 
1.832451e+00 
1.807552e+00 
1.782791e+00 
1.758170e+00 
1.733695e+00 
1.709370e+00 
1.685200e+00 
1.661191e+00 
1.637358e+00 
1.613724e+00 
1.590313e+00 
1.567118e+00 
1.544104e+00 
1.521244e+00 
1.498537e+00 
1.476006e+00 
1.453673e+00 
1.431548e+00 
1.409640e+00 
1.387954e+00 
1.366495e+00 
1.345269e+00 
1.324281e+00 
1.303537e+00 
1.283042e+00 
1.262803e+00 
1.242824e+00 
1.223113e+00 
1.203675e+00 
1.184516e+00 
1.165642e+00 
1.147057e+00 
1.128754e+00 
1.110718e+00 
1.092943e+00 
1.075451e+00 
1.058295e+00 
1.041519e+00 
1.025136e+00 
1.009132e+00 
9.934940e-01 
9.782230e-01 
9.633256e-01 
9.488104e-01 
9.346866e-01 
9.209639e-01 
9.076530e-01 
8.947652e-01 
8.823130e-01 
8.703098e-01 
8.587699e-01 
8.477081e-01 
8.371390e-01 
8.270767e-01 
8.175340e-01 
8.085217e-01 
8.000479e-01 
7.921174e-01 
7.847306e-01 
7.778824e-01 
7.715605e-01 
7.657438e-01 
7.603998e-01 
7.554847e-01 
7.509453e-01 
7.467218e-01 
7.427525e-01 
7.389907e-01 
7.353989e-01 
7.319368e-01 
7.285835e-01 
7.253810e-01 
7.224193e-01 
7.198014e-01 
7.176083e-01 
7.158868e-01 
7.146611e-01 
7.139393e-01 
7.137186e-01 
7.139909e-01 
7.147452e-01 
7.159696e-01 
7.176521e-01 
7.197805e-01 
7.223430e-01 
7.253281e-01 
7.287248e-01 
7.325223e-01 
7.367105e-01 
7.412799e-01 
7.462216e-01 
7.515275e-01 
7.571903e-01 
7.632034e-01 
7.695613e-01 
7.762591e-01 
7.832929e-01 
7.906598e-01 
7.983577e-01 
8.063851e-01 
8.147415e-01 
8.234271e-01 
8.324427e-01 
8.417899e-01 
8.514706e-01 
8.614872e-01 
8.718425e-01 
8.825397e-01 
8.935817e-01 
9.049719e-01 
9.167135e-01 
9.288092e-01 
9.412620e-01 
9.540739e-01 
9.672469e-01 
9.807822e-01 
9.946803e-01 
1.008941e+00 
1.023564e+00 
2.043857e+00 
2.017734e+00 
1.991715e+00 
1.965801e+00 
1.939997e+00 
1.914307e+00 
1.888733e+00 
1.863280e+00 
1.837951e+00 
1.812751e+00 
1.787684e+00 
1.762754e+00 
1.737965e+00 
1.713321e+00 
1.688828e+00 
1.664491e+00 
1.640320e+00 
1.616338e+00 
1.592566e+00 
1.569011e+00 
1.545646e+00 
1.522439e+00 
1.499378e+00 
1.476475e+00 
1.453753e+00 
1.431230e+00 
1.408914e+00 
1.386811e+00 
1.364928e+00 
1.343268e+00 
1.321837e+00 
1.300642e+00 
1.279687e+00 
1.258978e+00 
1.238521e+00 
1.218322e+00 
1.198387e+00 
1.178723e+00 
1.159334e+00 
1.140227e+00 
1.121402e+00 
1.102852e+00 
1.084572e+00 
1.066571e+00 
1.048879e+00 
1.031535e+00 
1.014561e+00 
9.979574e-01 
9.817172e-01 
9.658379e-01 
9.503243e-01 
9.351851e-01 
9.204300e-01 
9.060694e-01 
8.921152e-01 
8.785802e-01 
8.654788e-01 
8.528269e-01 
8.406415e-01 
8.289403e-01 
8.177412e-01 
8.070611e-01 
7.969151e-01 
7.873163e-01 
7.782743e-01 
7.697951e-01 
7.618806e-01 
7.545271e-01 
7.477252e-01 
7.414582e-01 
7.357011e-01 
7.304194e-01 
7.255706e-01 
7.211061e-01 
7.169744e-01 
7.131271e-01 
7.095284e-01 
7.061396e-01 
7.029115e-01 
6.998160e-01 
6.968832e-01 
6.942089e-01 
6.919033e-01 
6.900474e-01 
6.886824e-01 
6.878257e-01 
6.874781e-01 
6.876310e-01 
6.882718e-01 
6.893860e-01 
6.909592e-01 
6.929774e-01 
6.954270e-01 
6.982952e-01 
7.015693e-01 
7.052377e-01 
7.092891e-01 
7.137127e-01 
7.184986e-01 
7.236375e-01 
7.291212e-01 
7.349419e-01 
7.410931e-01 
7.475689e-01 
7.543646e-01 
7.614763e-01 
7.689009e-01 
7.766366e-01 
7.846821e-01 
7.930372e-01 
8.017025e-01 
8.106794e-01 
8.199700e-01 
8.295770e-01 
8.395038e-01 
8.497543e-01 
8.603326e-01 
8.712434e-01 
8.824913e-01 
8.940812e-01 
9.060177e-01 
9.183054e-01 
9.309486e-01 
9.439510e-01 
9.573159e-01 
9.710460e-01 
9.851432e-01 
9.996087e-01 
2.025695e+00 
1.999408e+00 
1.973224e+00 
1.947146e+00 
1.921178e+00 
1.895324e+00 
1.869587e+00 
1.843971e+00 
1.818480e+00 
1.793117e+00 
1.767887e+00 
1.742794e+00 
1.717843e+00 
1.693037e+00 
1.668381e+00 