# vtk DataFile Version 2.0 
Quadtree Mesh 
ASCII 
DATASET UNSTRUCTURED_GRID 
POINTS 16384 double 
-1.000000e+00 -1.000000e+00 0.000000e+00
-9.842520e-01 -1.000000e+00 0.000000e+00
-9.685039e-01 -1.000000e+00 0.000000e+00
-9.527559e-01 -1.000000e+00 0.000000e+00
-9.370079e-01 -1.000000e+00 0.000000e+00
-9.212598e-01 -1.000000e+00 0.000000e+00
-9.055118e-01 -1.000000e+00 0.000000e+00
-8.897638e-01 -1.000000e+00 0.000000e+00
-8.740157e-01 -1.000000e+00 0.000000e+00
-8.582677e-01 -1.000000e+00 0.000000e+00
-8.425197e-01 -1.000000e+00 0.000000e+00
-8.267717e-01 -1.000000e+00 0.000000e+00
-8.110236e-01 -1.000000e+00 0.000000e+00
-7.952756e-01 -1.000000e+00 0.000000e+00
-7.795276e-01 -1.000000e+00 0.000000e+00
-7.637795e-01 -1.000000e+00 0.000000e+00
-7.480315e-01 -1.000000e+00 0.000000e+00
-7.322835e-01 -1.000000e+00 0.000000e+00
-7.165354e-01 -1.000000e+00 0.000000e+00
-7.007874e-01 -1.000000e+00 0.000000e+00
-6.850394e-01 -1.000000e+00 0.000000e+00
-6.692913e-01 -1.000000e+00 0.000000e+00
-6.535433e-01 -1.000000e+00 0.000000e+00
-6.377953e-01 -1.000000e+00 0.000000e+00
-6.220472e-01 -1.000000e+00 0.000000e+00
-6.062992e-01 -1.000000e+00 0.000000e+00
-5.905512e-01 -1.000000e+00 0.000000e+00
-5.748031e-01 -1.000000e+00 0.000000e+00
-5.590551e-01 -1.000000e+00 0.000000e+00
-5.433071e-01 -1.000000e+00 0.000000e+00
-5.275591e-01 -1.000000e+00 0.000000e+00
-5.118110e-01 -1.000000e+00 0.000000e+00
-4.960630e-01 -1.000000e+00 0.000000e+00
-4.803150e-01 -1.000000e+00 0.000000e+00
-4.645669e-01 -1.000000e+00 0.000000e+00
-4.488189e-01 -1.000000e+00 0.000000e+00
-4.330709e-01 -1.000000e+00 0.000000e+00
-4.173228e-01 -1.000000e+00 0.000000e+00
-4.015748e-01 -1.000000e+00 0.000000e+00
-3.858268e-01 -1.000000e+00 0.000000e+00
-3.700787e-01 -1.000000e+00 0.000000e+00
-3.543307e-01 -1.000000e+00 0.000000e+00
-3.385827e-01 -1.000000e+00 0.000000e+00
-3.228346e-01 -1.000000e+00 0.000000e+00
-3.070866e-01 -1.000000e+00 0.000000e+00
-2.913386e-01 -1.000000e+00 0.000000e+00
-2.755906e-01 -1.000000e+00 0.000000e+00
-2.598425e-01 -1.000000e+00 0.000000e+00
-2.440945e-01 -1.000000e+00 0.000000e+00
-2.283465e-01 -1.000000e+00 0.000000e+00
-2.125984e-01 -1.000000e+00 0.000000e+00
-1.968504e-01 -1.000000e+00 0.000000e+00
-1.811024e-01 -1.000000e+00 0.000000e+00
-1.653543e-01 -1.000000e+00 0.000000e+00
-1.496063e-01 -1.000000e+00 0.000000e+00
-1.338583e-01 -1.000000e+00 0.000000e+00
-1.181102e-01 -1.000000e+00 0.000000e+00
-1.023622e-01 -1.000000e+00 0.000000e+00
-8.661417e-02 -1.000000e+00 0.000000e+00
-7.086614e-02 -1.000000e+00 0.000000e+00
-5.511811e-02 -1.000000e+00 0.000000e+00
-3.937008e-02 -1.000000e+00 0.000000e+00
-2.362205e-02 -1.000000e+00 0.000000e+00
-7.874016e-03 -1.000000e+00 0.000000e+00
7.874016e-03 -1.000000e+00 0.000000e+00
2.362205e-02 -1.000000e+00 0.000000e+00
3.937008e-02 -1.000000e+00 0.000000e+00
5.511811e-02 -1.000000e+00 0.000000e+00
7.086614e-02 -1.000000e+00 0.000000e+00
8.661417e-02 -1.000000e+00 0.000000e+00
1.023622e-01 -1.000000e+00 0.000000e+00
1.181102e-01 -1.000000e+00 0.000000e+00
1.338583e-01 -1.000000e+00 0.000000e+00
1.496063e-01 -1.000000e+00 0.000000e+00
1.653543e-01 -1.000000e+00 0.000000e+00
1.811024e-01 -1.000000e+00 0.000000e+00
1.968504e-01 -1.000000e+00 0.000000e+00
2.125984e-01 -1.000000e+00 0.000000e+00
2.283465e-01 -1.000000e+00 0.000000e+00
2.440945e-01 -1.000000e+00 0.000000e+00
2.598425e-01 -1.000000e+00 0.000000e+00
2.755906e-01 -1.000000e+00 0.000000e+00
2.913386e-01 -1.000000e+00 0.000000e+00
3.070866e-01 -1.000000e+00 0.000000e+00
3.228346e-01 -1.000000e+00 0.000000e+00
3.385827e-01 -1.000000e+00 0.000000e+00
3.543307e-01 -1.000000e+00 0.000000e+00
3.700787e-01 -1.000000e+00 0.000000e+00
3.858268e-01 -1.000000e+00 0.000000e+00
4.015748e-01 -1.000000e+00 0.000000e+00
4.173228e-01 -1.000000e+00 0.000000e+00
4.330709e-01 -1.000000e+00 0.000000e+00
4.488189e-01 -1.000000e+00 0.000000e+00
4.645669e-01 -1.000000e+00 0.000000e+00
4.803150e-01 -1.000000e+00 0.000000e+00
4.960630e-01 -1.000000e+00 0.000000e+00
5.118110e-01 -1.000000e+00 0.000000e+00
5.275591e-01 -1.000000e+00 0.000000e+00
5.433071e-01 -1.000000e+00 0.000000e+00
5.590551e-01 -1.000000e+00 0.000000e+00
5.748031e-01 -1.000000e+00 0.000000e+00
5.905512e-01 -1.000000e+00 0.000000e+00
6.062992e-01 -1.000000e+00 0.000000e+00
6.220472e-01 -1.000000e+00 0.000000e+00
6.377953e-01 -1.000000e+00 0.000000e+00
6.535433e-01 -1.000000e+00 0.000000e+00
6.692913e-01 -1.000000e+00 0.000000e+00
6.850394e-01 -1.000000e+00 0.000000e+00
7.007874e-01 -1.000000e+00 0.000000e+00
7.165354e-01 -1.000000e+00 0.000000e+00
7.322835e-01 -1.000000e+00 0.000000e+00
7.480315e-01 -1.000000e+00 0.000000e+00
7.637795e-01 -1.000000e+00 0.000000e+00
7.795276e-01 -1.000000e+00 0.000000e+00
7.952756e-01 -1.000000e+00 0.000000e+00
8.110236e-01 -1.000000e+00 0.000000e+00
8.267717e-01 -1.000000e+00 0.000000e+00
8.425197e-01 -1.000000e+00 0.000000e+00
8.582677e-01 -1.000000e+00 0.000000e+00
8.740157e-01 -1.000000e+00 0.000000e+00
8.897638e-01 -1.000000e+00 0.000000e+00
9.055118e-01 -1.000000e+00 0.000000e+00
9.212598e-01 -1.000000e+00 0.000000e+00
9.370079e-01 -1.000000e+00 0.000000e+00
9.527559e-01 -1.000000e+00 0.000000e+00
9.685039e-01 -1.000000e+00 0.000000e+00
9.842520e-01 -1.000000e+00 0.000000e+00
1.000000e+00 -1.000000e+00 0.000000e+00
-1.000000e+00 -9.842520e-01 0.000000e+00
-9.842520e-01 -9.842520e-01 0.000000e+00
-9.685039e-01 -9.842520e-01 0.000000e+00
-9.527559e-01 -9.842520e-01 0.000000e+00
-9.370079e-01 -9.842520e-01 0.000000e+00
-9.212598e-01 -9.842520e-01 0.000000e+00
-9.055118e-01 -9.842520e-01 0.000000e+00
-8.897638e-01 -9.842520e-01 0.000000e+00
-8.740157e-01 -9.842520e-01 0.000000e+00
-8.582677e-01 -9.842520e-01 0.000000e+00
-8.425197e-01 -9.842520e-01 0.000000e+00
-8.267717e-01 -9.842520e-01 0.000000e+00
-8.110236e-01 -9.842520e-01 0.000000e+00
-7.952756e-01 -9.842520e-01 0.000000e+00
-7.795276e-01 -9.842520e-01 0.000000e+00
-7.637795e-01 -9.842520e-01 0.000000e+00
-7.480315e-01 -9.842520e-01 0.000000e+00
-7.322835e-01 -9.842520e-01 0.000000e+00
-7.165354e-01 -9.842520e-01 0.000000e+00
-7.007874e-01 -9.842520e-01 0.000000e+00
-6.850394e-01 -9.842520e-01 0.000000e+00
-6.692913e-01 -9.842520e-01 0.000000e+00
-6.535433e-01 -9.842520e-01 0.000000e+00
-6.377953e-01 -9.842520e-01 0.000000e+00
-6.220472e-01 -9.842520e-01 0.000000e+00
-6.062992e-01 -9.842520e-01 0.000000e+00
-5.905512e-01 -9.842520e-01 0.000000e+00
-5.748031e-01 -9.842520e-01 0.000000e+00
-5.590551e-01 -9.842520e-01 0.000000e+00
-5.433071e-01 -9.842520e-01 0.000000e+00
-5.275591e-01 -9.842520e-01 0.000000e+00
-5.118110e-01 -9.842520e-01 0.000000e+00
-4.960630e-01 -9.842520e-01 0.000000e+00
-4.803150e-01 -9.842520e-01 0.000000e+00
-4.645669e-01 -9.842520e-01 0.000000e+00
-4.488189e-01 -9.842520e-01 0.000000e+00
-4.330709e-01 -9.842520e-01 0.000000e+00
-4.173228e-01 -9.842520e-01 0.000000e+00
-4.015748e-01 -9.842520e-01 0.000000e+00
-3.858268e-01 -9.842520e-01 0.000000e+00
-3.700787e-01 -9.842520e-01 0.000000e+00
-3.543307e-01 -9.842520e-01 0.000000e+00
-3.385827e-01 -9.842520e-01 0.000000e+00
-3.228346e-01 -9.842520e-01 0.000000e+00
-3.070866e-01 -9.842520e-01 0.000000e+00
-2.913386e-01 -9.842520e-01 0.000000e+00
-2.755906e-01 -9.842520e-01 0.000000e+00
-2.598425e-01 -9.842520e-01 0.000000e+00
-2.440945e-01 -9.842520e-01 0.000000e+00
-2.283465e-01 -9.842520e-01 0.000000e+00
-2.125984e-01 -9.842520e-01 0.000000e+00
-1.968504e-01 -9.842520e-01 0.000000e+00
-1.811024e-01 -9.842520e-01 0.000000e+00
-1.653543e-01 -9.842520e-01 0.000000e+00
-1.496063e-01 -9.842520e-01 0.000000e+00
-1.338583e-01 -9.842520e-01 0.000000e+00
-1.181102e-01 -9.842520e-01 0.000000e+00
-1.023622e-01 -9.842520e-01 0.000000e+00
-8.661417e-02 -9.842520e-01 0.000000e+00
-7.086614e-02 -9.842520e-01 0.000000e+00
-5.511811e-02 -9.842520e-01 0.000000e+00
-3.937008e-02 -9.842520e-01 0.000000e+00
-2.362205e-02 -9.842520e-01 0.000000e+00
-7.874016e-03 -9.842520e-01 0.000000e+00
7.874016e-03 -9.842520e-01 0.000000e+00
2.362205e-02 -9.842520e-01 0.000000e+00
3.937008e-02 -9.842520e-01 0.000000e+00
5.511811e-02 -9.842520e-01 0.000000e+00
7.086614e-02 -9.842520e-01 0.000000e+00
8.661417e-02 -9.842520e-01 0.000000e+00
1.023622e-01 -9.842520e-01 0.000000e+00
1.181102e-01 -9.842520e-01 0.000000e+00
1.338583e-01 -9.842520e-01 0.000000e+00
1.496063e-01 -9.842520e-01 0.000000e+00
1.653543e-01 -9.842520e-01 0.000000e+00
1.811024e-01 -9.842520e-01 0.000000e+00
1.968504e-01 -9.842520e-01 0.000000e+00
2.125984e-01 -9.842520e-01 0.000000e+00
2.283465e-01 -9.842520e-01 0.000000e+00
2.440945e-01 -9.842520e-01 0.000000e+00
2.598425e-01 -9.842520e-01 0.000000e+00
2.755906e-01 -9.842520e-01 0.000000e+00
2.913386e-01 -9.842520e-01 0.000000e+00
3.070866e-01 -9.842520e-01 0.000000e+00
3.228346e-01 -9.842520e-01 0.000000e+00
3.385827e-01 -9.842520e-01 0.000000e+00
3.543307e-01 -9.842520e-01 0.000000e+00
3.700787e-01 -9.842520e-01 0.000000e+00
3.858268e-01 -9.842520e-01 0.000000e+00
4.015748e-01 -9.842520e-01 0.000000e+00
4.173228e-01 -9.842520e-01 0.000000e+00
4.330709e-01 -9.842520e-01 0.000000e+00
4.488189e-01 -9.842520e-01 0.000000e+00
4.645669e-01 -9.842520e-01 0.000000e+00
4.803150e-01 -9.842520e-01 0.000000e+00
4.960630e-01 -9.842520e-01 0.000000e+00
5.118110e-01 -9.842520e-01 0.000000e+00
5.275591e-01 -9.842520e-01 0.000000e+00
5.433071e-01 -9.842520e-01 0.000000e+00
5.590551e-01 -9.842520e-01 0.000000e+00
5.748031e-01 -9.842520e-01 0.000000e+00
5.905512e-01 -9.842520e-01 0.000000e+00
6.062992e-01 -9.842520e-01 0.000000e+00
6.220472e-01 -9.842520e-01 0.000000e+00
6.377953e-01 -9.842520e-01 0.000000e+00
6.535433e-01 -9.842520e-01 0.000000e+00
6.692913e-01 -9.842520e-01 0.000000e+00
6.850394e-01 -9.842520e-01 0.000000e+00
7.007874e-01 -9.842520e-01 0.000000e+00
7.165354e-01 -9.842520e-01 0.000000e+00
7.322835e-01 -9.842520e-01 0.000000e+00
7.480315e-01 -9.842520e-01 0.000000e+00
7.637795e-01 -9.842520e-01 0.000000e+00
7.795276e-01 -9.842520e-01 0.000000e+00
7.952756e-01 -9.842520e-01 0.000000e+00
8.110236e-01 -9.842520e-01 0.000000e+00
[...]
POINT_DATA 16384 
SCALARS concentration double 1 
LOOKUP_TABLE default 
2.463589e+00 
2.438992e+00 
2.414517e+00 
2.390165e+00 
2.365940e+00 
2.341845e+00 
2.317883e+00 
2.294058e+00 
2.270373e+00 
2.246831e+00 
2.223436e+00 
2.200191e+00 
2.177101e+00 
2.154169e+00 
2.131399e+00 
2.108796e+00 
2.086363e+00 
2.064105e+00 
2.042026e+00 
2.020131e+00 
1.998425e+00 
1.976911e+00 
1.955595e+00 
1.934481e+00 
1.913576e+00 
1.892883e+00 
1.872408e+00 
1.852156e+00 
1.832133e+00 
1.812344e+00 
1.792795e+00 
1.773490e+00 
1.754437e+00 
1.735640e+00 
1.717106e+00 
1.698840e+00 
1.680849e+00 
1.663138e+00 
1.645713e+00 
1.628582e+00 
1.611749e+00 
1.595221e+00 
1.579005e+00 
1.563107e+00 
1.547533e+00 
1.532289e+00 
1.517383e+00 
1.502820e+00 
1.488608e+00 
1.474752e+00 
1.461259e+00 
1.448136e+00 
1.435388e+00 
1.423024e+00 
1.411048e+00 
1.399467e+00 
1.388288e+00 
1.377516e+00 
1.367159e+00 
1.357221e+00 
1.347710e+00 
1.338630e+00 
1.329987e+00 
1.321788e+00 
1.314035e+00 
1.306736e+00 
1.299891e+00 
1.293505e+00 
1.287575e+00 
1.282095e+00 
1.277044e+00 
1.272386e+00 
1.268055e+00 
1.263960e+00 
1.259998e+00 
1.256097e+00 
1.252245e+00 
1.248549e+00 
1.245118e+00 
1.242035e+00 
1.239350e+00 
1.237093e+00 
1.235279e+00 
1.233916e+00 
1.233010e+00 
1.232562e+00 
1.232573e+00 
1.233042e+00 
1.233969e+00 
1.235353e+00 
1.237191e+00 
1.239483e+00 
1.242225e+00 
1.245416e+00 
1.249052e+00 
1.253132e+00 
1.257651e+00 
1.262607e+00 
1.267995e+00 
1.273812e+00 
1.280055e+00 
1.286719e+00 
1.293800e+00 
1.301294e+00 
1.309195e+00 
1.317501e+00 
1.326204e+00 
1.335302e+00 
1.344789e+00 
1.354660e+00 
1.364910e+00 
1.375533e+00 
1.386525e+00 
1.397881e+00 
1.409595e+00 
1.421661e+00 
1.434075e+00 
1.446832e+00 
1.459925e+00 
1.473350e+00 
1.487101e+00 
1.501174e+00 
1.515562e+00 
1.530260e+00 
1.545265e+00 
1.560569e+00 
1.576169e+00 
1.592058e+00 
2.443170e+00 
2.418409e+00 
2.393767e+00 
2.369249e+00 
2.344858e+00 
2.320596e+00 
2.296467e+00 
2.272475e+00 
2.248622e+00 
2.224912e+00 
2.201349e+00 
2.177937e+00 
2.154679e+00 
2.131580e+00 
2.108643e+00 
2.085872e+00 
2.063273e+00 
2.040848e+00 
2.018603e+00 
1.996542e+00 
1.974670e+00 
1.952991e+00 
1.931510e+00 
1.910232e+00 
1.889163e+00 
1.868306e+00 
1.847668e+00 
1.827253e+00 
1.807067e+00 
1.787115e+00 
1.767403e+00 
1.747936e+00 
1.728721e+00 
1.709762e+00 
1.691066e+00 
1.672639e+00 
1.654486e+00 
1.636613e+00 
1.619028e+00 
1.601735e+00 
1.584741e+00 
1.568053e+00 
1.551677e+00 
1.535620e+00 
1.519887e+00 
1.504485e+00 
1.489422e+00 
1.474703e+00 
1.460335e+00 
1.446325e+00 
1.432679e+00 
1.419405e+00 
1.406509e+00 
1.393997e+00 
1.381877e+00 
1.370154e+00 
1.358836e+00 
1.347928e+00 
1.337438e+00 
1.327371e+00 
1.317734e+00 
1.308532e+00 
1.299772e+00 
1.291460e+00 
1.283600e+00 
1.276198e+00 
1.269258e+00 
1.262781e+00 
1.256769e+00 
1.251214e+00 
1.246100e+00 
1.241390e+00 
1.237023e+00 
1.232909e+00 
1.228947e+00 
1.225064e+00 
1.221222e+00 
1.217520e+00 
1.214073e+00 
1.210969e+00 
1.208263e+00 
1.205987e+00 
1.204158e+00 
1.202785e+00 
1.201875e+00 
1.201429e+00 
1.201448e+00 
1.201931e+00 
1.202879e+00 
1.204289e+00 
1.206161e+00 
1.208492e+00 
1.211280e+00 
1.214523e+00 
1.218218e+00 
1.222361e+00 
1.226950e+00 
1.231981e+00 
1.237451e+00 
1.243356e+00 
1.249691e+00 
1.256453e+00 
1.263638e+00 
1.271239e+00 
1.279254e+00 
1.287677e+00 
1.296503e+00 
1.305728e+00 
1.315345e+00 
1.325350e+00 
1.335738e+00 
1.346504e+00 
1.357641e+00 
1.369144e+00 
1.381008e+00 
1.393228e+00 
1.405797e+00 
1.418711e+00 
1.431964e+00 
1.445550e+00 
1.459464e+00 
1.473700e+00 
1.488253e+00 
1.503118e+00 
1.518289e+00 
1.533760e+00 
1.549527e+00 
1.565585e+00 
2.422854e+00 
2.397938e+00 
2.373142e+00 
2.348469e+00 
2.323922e+00 
2.299505e+00 
2.275220e+00 
2.251072e+00 
2.227063e+00 
2.203197e+00 
2.179478e+00 
2.155910e+00 
2.132497e+00 
2.109241e+00 
2.086148e+00 
2.063222e+00 
2.040466e+00 
2.017886e+00 
1.995484e+00 
1.973267e+00 
1.951238e+00 
1.929402e+00 
1.907765e+00 
1.886329e+00 
1.865102e+00 
1.844087e+00 
1.823290e+00 
1.802716e+00 
1.782370e+00 
1.762259e+00 
1.742386e+00 
1.722758e+00 
1.703381e+00 
1.684259e+00 
1.665400e+00 
1.646809e+00 
1.628492e+00 
1.610455e+00 
1.592705e+00 
1.575247e+00 
1.558088e+00 
1.541234e+00 
1.524692e+00 
1.508469e+00 
1.492570e+00 
1.477004e+00 
1.461776e+00 
1.446893e+00 
1.432363e+00 
1.418191e+00 
1.404386e+00 
1.390953e+00 
1.377900e+00 
1.365233e+00 
1.352961e+00 
1.341088e+00 
1.329623e+00 
1.318571e+00 
1.307940e+00 
1.297737e+00 
1.287967e+00 
1.278637e+00 
1.269753e+00 
1.261321e+00 
1.253347e+00 
1.245836e+00 
1.238793e+00 
1.232220e+00 
1.226119e+00 
1.220483e+00 
1.215296e+00 
1.210526e+00 
1.206111e+00 
1.201967e+00 
1.197992e+00 
1.194113e+00 
1.190270e+00 
1.186555e+00 
1.183084e+00 
1.179951e+00 
1.177214e+00 
1.174910e+00 
1.173056e+00 
1.171665e+00 
1.170740e+00 
1.170287e+00 
1.170304e+00 
1.170793e+00 
1.171752e+00 
1.173181e+00 
1.175078e+00 
1.177440e+00 
1.180267e+00 
1.183555e+00 
1.187301e+00 
1.191503e+00 
1.196157e+00 
1.201261e+00 
1.206809e+00 
1.212799e+00 
1.219225e+00 
1.226085e+00 
1.233372e+00 
1.241084e+00 
1.249214e+00 
1.257758e+00 
1.266710e+00 
1.276066e+00 
1.285820e+00 
1.295966e+00 
1.306500e+00 
1.317415e+00 
1.328706e+00 
1.340366e+00 
1.352392e+00 
1.364775e+00 
1.377512e+00 
1.390595e+00 
1.404019e+00 
1.417779e+00 
1.431869e+00 
1.446282e+00 
1.461013e+00 
1.476057e+00 
1.491408e+00 
1.507060e+00 
1.523007e+00 
1.539246e+00 
2.402744e+00 
2.377685e+00 
2.352746e+00 
2.327929e+00 
2.303239e+00 
2.278678e+00 
2.254249e+00 
2.229956e+00 
2.205803e+00 
2.181792e+00 
2.157928e+00 
2.134213e+00 
2.110653e+00 
2.087251e+00 
2.064010e+00 
2.040936e+00 
2.018031e+00 
1.995301e+00 
1.972749e+00 
1.950381e+00 
1.928200e+00 
1.906211e+00 
1.884419e+00 
1.862828e+00 
1.841444e+00 
1.820272e+00 
1.799316e+00 
1.778582e+00 
1.758076e+00 
1.737801e+00 
1.717765e+00 
1.697972e+00 
1.678429e+00 
1.659140e+00 
1.640113e+00 
1.621353e+00 
1.602865e+00 
1.584657e+00 
1.566734e+00 
1.549103e+00 
1.531771e+00 
1.514743e+00 
1.498027e+00 
1.481630e+00 
1.465557e+00 
1.449817e+00 
1.434416e+00 
1.419360e+00 
1.404658e+00 
1.390315e+00 
1.376340e+00 
1.362739e+00 
1.349520e+00 
1.336689e+00 
1.324254e+00 
1.312222e+00 
1.300600e+00 
1.289395e+00 
1.278614e+00 
1.268264e+00 
1.258351e+00 
1.248883e+00 
1.239865e+00 
1.231305e+00 
1.223208e+00 
1.215579e+00 
1.208424e+00 
1.201747e+00 
1.195547e+00 
1.189821e+00 
1.184553e+00 
1.179712e+00 
1.175239e+00 
1.171052e+00 
1.167050e+00 
1.163146e+00 
1.159276e+00 
1.155529e+00 
1.152018e+00 
1.148839e+00 
1.146056e+00 
1.143706e+00 
1.141810e+00 
1.140382e+00 
1.139426e+00 
1.138948e+00 
1.138947e+00 
1.139424e+00 
1.140380e+00 
1.141812e+00 
1.143719e+00 
1.146100e+00 
1.148952e+00 
1.152273e+00 
1.156061e+00 
1.160311e+00 
1.165022e+00 
1.170190e+00 
1.175810e+00 
1.181879e+00 
1.188393e+00 
1.195347e+00 
1.202736e+00 
1.210556e+00 
1.218802e+00 
1.227469e+00 
1.236550e+00 
1.246042e+00 
1.255937e+00 
1.266231e+00 
1.276918e+00 
1.287992e+00 
1.299446e+00 
1.311276e+00 
1.323474e+00 
1.336035e+00 
1.348952e+00 
1.362220e+00 
1.375832e+00 
1.389782e+00 
1.404065e+00 
1.418673e+00 
1.433602e+00 
1.448844e+00 
1.464394e+00 
1.480247e+00 
1.496396e+00 
1.512835e+00 
2.382950e+00 
2.357759e+00 
2.332687e+00 
2.307737e+00 
2.282913e+00 
2.258217e+00 
2.233652e+00 
2.209223e+00 
2.184932e+00 
2.160783e+00 
2.136779e+00 
2.112925e+00 
2.089223e+00 
2.065678e+00 
2.042294e+00 
2.019074e+00 
1.996023e+00 
1.973144e+00 
1.950443e+00 
1.927923e+00 
1.905589e+00 
1.883445e+00 
1.861497e+00 
1.839748e+00 
1.818205e+00 
1.796871e+00 
1.775752e+00 
1.754852e+00 
1.734179e+00 
1.713735e+00 
1.693529e+00 
1.673564e+00 
1.653846e+00 
1.634382e+00 
1.615178e+00 
1.596239e+00 
1.577572e+00 
1.559182e+00 
1.541078e+00 
1.523264e+00 
1.505747e+00 
1.488535e+00 
1.471634e+00 
1.455051e+00 
1.438793e+00 
1.422867e+00 
1.407280e+00 
1.392040e+00 
1.377153e+00 
1.362627e+00 
1.348469e+00 
1.334687e+00 
1.321288e+00 
1.308279e+00 
1.295668e+00 
1.283463e+00 
1.271670e+00 
1.260298e+00 
1.249352e+00 
1.238842e+00 
1.228773e+00 
1.219152e+00 
1.209988e+00 
1.201285e+00 
1.193052e+00 
1.185293e+00 
1.178014e+00 
1.171220e+00 
1.164911e+00 
1.159084e+00 
1.153723e+00 
1.148799e+00 
1.144257e+00 
1.140014e+00 
1.135959e+00 
1.131987e+00 
1.128057e+00 
1.124251e+00 
1.120677e+00 
1.117431e+00 
1.114578e+00 
1.112161e+00 
1.110202e+00 
1.108715e+00 
1.107708e+00 
1.107185e+00 
1.107148e+00 
1.107597e+00 
1.108531e+00 
1.109951e+00 
1.111854e+00 
1.114240e+00 
1.117106e+00 
1.120449e+00 
1.124268e+00 
1.128558e+00 
1.133317e+00 
1.138542e+00 
1.144228e+00 
1.150371e+00 
1.156968e+00 
1.164012e+00 
1.171501e+00 
1.179428e+00 
1.187788e+00 
1.196577e+00 
1.205788e+00 
1.215416e+00 
1.225456e+00 
1.235901e+00 
1.246745e+00 
1.257983e+00 
1.269607e+00 
1.281612e+00 
1.293992e+00 
1.306739e+00 
1.319848e+00 
1.333312e+00 
1.347125e+00 
1.361280e+00 
1.375770e+00 
1.390590e+00 
1.405733e+00 
1.421192e+00 
1.436962e+00 
1.453036e+00 
1.469407e+00 
1.486071e+00 
2.363565e+00 
2.338248e+00 
2.313050e+00 
2.287972e+00 
2.263018e+00 
2.238192e+00 
2.213496e+00 
2.188933e+00 
2.164507e+00 
2.140221e+00 
2.116080e+00 
2.092085e+00 
2.068242e+00 
2.044553e+00 
2.021023e+00 
1.997655e+00 
1.974454e+00 
1.951424e+00 
1.928568e+00 
1.905892e+00 
1.883399e+00 
1.861095e+00 
1.838983e+00 
1.817069e+00 
1.795358e+00 
1.773854e+00 
1.752562e+00 
1.731488e+00 
1.710637e+00 
1.690015e+00 
1.669627e+00 
1.649478e+00 
1.629576e+00 
1.609924e+00 
1.590530e+00 
1.571400e+00 
1.552540e+00 
1.533957e+00 
1.515656e+00 
1.497645e+00 
1.479931e+00 
1.462519e+00 
1.445418e+00 
1.428634e+00 
1.412174e+00 
1.396046e+00 
1.380257e+00 
1.364815e+00 
1.349726e+00 
1.334999e+00 
1.320641e+00 
1.306660e+00 
1.293063e+00 
1.279858e+00 
1.267054e+00 
1.254657e+00 
1.242675e+00 
1.231117e+00 
1.219989e+00 
1.209300e+00 
1.199058e+00 
1.189268e+00 
1.179940e+00 
1.171080e+00 
1.162694e+00 
1.154790e+00 
1.147374e+00 
1.140449e+00 
1.134018e+00 
1.128077e+00 
1.122613e+00 
1.117596e+00 
1.112973e+00 
1.108656e+00 
1.104523e+00 
1.100449e+00 
1.096433e+00 
1.092546e+00 
1.088889e+00 
1.085557e+00 
1.082618e+00 
1.080117e+00 
1.078079e+00 
1.076521e+00 
1.075450e+00 
1.074872e+00 
1.074788e+00 
1.075199e+00 
1.076105e+00 
1.077506e+00 
1.079400e+00 
1.081786e+00 
1.084661e+00 
1.088024e+00 
1.091871e+00 
1.096199e+00 
1.101005e+00 
1.106285e+00 
1.112035e+00 
1.118251e+00 
1.124928e+00 
1.132063e+00 
1.139648e+00 
1.147681e+00 
1.156155e+00 
1.165064e+00 
1.174403e+00 
1.184167e+00 
1.194349e+00 
1.204943e+00 
1.215943e+00 
1.227343e+00 
1.239136e+00 
1.251316e+00 
1.263876e+00 
1.276810e+00 
1.290111e+00 
1.303773e+00 
1.317788e+00 
1.332151e+00 
1.346854e+00 
1.361890e+00 
1.377254e+00 
1.392938e+00 
1.408935e+00 
1.425240e+00 
1.441845e+00 
1.458745e+00 
2.344642e+00 
2.319201e+00 
2.293876e+00 
2.268670e+00 
2.243587e+00 
2.218628e+00 
2.193798e+00 
2.169099e+00 
2.144535e+00 
2.120109e+00 
2.095824e+00 
2.071685e+00 
2.047693e+00 
2.023854e+00 
2.000171e+00 
1.976648e+00 
1.953289e+00 
1.930098e+00 
1.907079e+00 
1.884236e+00 
1.861574e+00 
1.839098e+00 
1.816812e+00 
1.794720e+00 
1.772829e+00 
1.751142e+00 
1.729664e+00 
1.708402e+00 
1.687360e+00 
1.666545e+00 
1.645960e+00 
1.625613e+00 
1.605509e+00 
1.585655e+00 
1.566055e+00 
1.546718e+00 
1.527648e+00 
1.508853e+00 
1.490339e+00 
1.472113e+00 
1.454182e+00 
1.436553e+00 
1.419233e+00 
1.402229e+00 
1.385549e+00 
1.369200e+00 
1.353189e+00 
1.337526e+00 
1.322216e+00 
1.307268e+00 
1.292691e+00 
1.278491e+00 
1.264677e+00 
1.251258e+00 
1.238240e+00 
1.225634e+00 
1.213445e+00 
1.201684e+00 
1.190358e+00 
1.179474e+00 
1.169042e+00 
1.159069e+00 
1.149563e+00 
1.140531e+00 
1.131981e+00 
1.123920e+00 
1.116355e+00 
1.109289e+00 
1.102727e+00 
1.096664e+00 
1.091088e+00 
1.085970e+00 
1.081258e+00 
1.076858e+00 
1.072637e+00 
1.068462e+00 
1.064358e+00 
1.060386e+00 
1.056640e+00 
1.053217e+00 
1.050190e+00 
1.047604e+00 
1.045490e+00 
1.043863e+00 
1.042732e+00 
1.042103e+00 
1.041979e+00 
1.042360e+00 
1.043246e+00 
1.044636e+00 
1.046530e+00 
1.048925e+00 
1.051819e+00 
1.055210e+00 
1.059093e+00 
1.063467e+00 
1.068327e+00 
1.073670e+00 
1.079490e+00 
1.085784e+00 
1.092547e+00 
1.099774e+00 
1.107460e+00 
1.115598e+00 
1.124185e+00 
1.133214e+00 
1.142679e+00 
1.152574e+00 
1.162894e+00 
1.173632e+00 
1.184781e+00 
1.196336e+00 
1.208289e+00 
1.220635e+00 
1.233367e+00 
1.246477e+00 
1.259960e+00 
1.273808e+00 
1.288016e+00 
1.302575e+00 
1.317479e+00 
1.332722e+00 
1.348296e+00 
1.364195e+00 
1.380412e+00 
1.396941e+00 
1.413773e+00 
1.430903e+00 
2.326172e+00 
2.300602e+00 
2.275146e+00 
2.249806e+00 
2.224586e+00 
2.199489e+00 
2.174517e+00 
2.149673e+00 
2.124962e+00 
2.100386e+00 
2.075948e+00 
2.051652e+00 
2.027502e+00 
2.003501e+00 
1.979653e+00 
1.955962e+00 
1.932432e+00 
1.909067e+00 
1.885870e+00 
1.862847e+00 
1.840002e+00 
1.817339e+00 
1.794863e+00 
1.772579e+00 
1.750491e+00 
1.728605e+00 
1.706926e+00 
1.685459e+00 
1.664210e+00 
1.643184e+00 
1.622387e+00 
1.601824e+00 
1.581503e+00 
1.561428e+00 
1.541606e+00 
1.522043e+00 
1.502747e+00 
1.483723e+00 
1.464979e+00 
1.446521e+00 
1.428357e+00 
1.410493e+00 
1.392938e+00 
1.375698e+00 
1.358781e+00 
1.342195e+00 
1.325948e+00 
1.310048e+00 
1.294503e+00 
1.279321e+00 
1.264510e+00 
1.250079e+00 
1.236036e+00 
1.222389e+00 
1.209148e+00 
1.196321e+00 
1.183916e+00 
1.171943e+00 
1.160409e+00 
1.149324e+00 
1.138695e+00 
1.128532e+00 
1.118842e+00 
1.109634e+00 
1.100916e+00 
1.092694e+00 
1.084976e+00 
1.077767e+00 
1.071070e+00 
1.064883e+00 
1.059193e+00 
1.053974e+00 
1.049172e+00 
1.044691e+00 
1.040397e+00 
1.036165e+00 
1.032000e+00 
1.027961e+00 
1.024142e+00 
1.020645e+00 
1.017545e+00 
1.014894e+00 
1.012722e+00 
1.011046e+00 
1.009878e+00 
1.009221e+00 
1.009078e+00 
1.009452e+00 
1.010340e+00 
1.011742e+00 
1.013657e+00 
1.016083e+00 
1.019016e+00 
1.022453e+00 
1.026393e+00 
1.030829e+00 
1.035760e+00 
1.041179e+00 
1.047083e+00 
1.053467e+00 
1.060325e+00 
1.067653e+00 
1.075445e+00 
1.083695e+00 
1.092398e+00 
1.101548e+00 
1.111138e+00 
1.121163e+00 
1.131616e+00 
1.142491e+00 
1.153782e+00 
1.165482e+00 
1.177585e+00 
1.190084e+00 
1.202972e+00 
1.216243e+00 
1.229891e+00 
1.243908e+00 
1.258288e+00 
1.273023e+00 
1.288108e+00 
1.303536e+00 
1.319298e+00 
1.335390e+00 
1.351803e+00 
1.368532e+00 
1.385569e+00 
1.402907e+00 
2.308077e+00 
2.282368e+00 
2.256769e+00 
2.231284e+00 
2.205916e+00 
2.180668e+00 
2.155542e+00 
2.130541e+00 
2.105670e+00 
2.080930e+00 
2.056326e+00 
2.031860e+00 
2.007537e+00 
1.983360e+00 
1.959333e+00 
1.935460e+00 
1.911744e+00 
1.888189e+00 
1.864801e+00 
1.841583e+00 
1.818540e+00 
1.795676e+00 
1.772996e+00 
1.750505e+00 
1.728207e+00 
1.706109e+00 
1.684215e+00 
1.662530e+00 
1.641061e+00 
1.619812e+00 
1.598789e+00 
1.578000e+00 
1.557449e+00 
1.537142e+00 
1.517087e+00 
1.497290e+00 
1.477757e+00 
1.458496e+00 
1.439513e+00 
1.420815e+00 
1.402410e+00 
1.384305e+00 
1.366508e+00 
1.349026e+00 
1.331868e+00 
1.315041e+00 
1.298553e+00 
1.282413e+00 
1.266629e+00 
1.251210e+00 
1.236165e+00 
1.221501e+00 
1.207228e+00 
1.193355e+00 
1.179891e+00 
1.166846e+00 
1.154227e+00 
1.142044e+00 
1.130306e+00 
1.119022e+00 
1.108202e+00 
1.097853e+00 
1.087984e+00 
1.078605e+00 
1.069723e+00 
1.061346e+00 
1.053481e+00 
1.046133e+00 
1.039307e+00 
1.033000e+00 
1.027201e+00 
1.021886e+00 
1.016999e+00 
1.012449e+00 
1.008109e+00 
1.003866e+00 
9.996919e-01 
9.956276e-01 
9.917702e-01 
9.882298e-01 
9.850891e-01 
9.824035e-01 
9.802047e-01 
9.785116e-01 
9.773348e-01 
9.766800e-01 
9.765494e-01 
9.769439e-01 
9.778629e-01 
9.793049e-01 
9.812680e-01 
9.837494e-01 
9.867462e-01 
9.902350e-01 
9.942229e-01 
9.987182e-01 
1.003721e+00 
1.009224e+00 
1.015222e+00 
1.021706e+00 
1.028671e+00 
1.036110e+00 
1.044018e+00 
1.052387e+00 
1.061212e+00 
1.070487e+00 
1.080206e+00 
1.090362e+00 
1.100950e+00 
1.111961e+00 
1.123391e+00 
1.135232e+00 
1.147478e+00 
1.160122e+00 
1.173159e+00 
1.186580e+00 
1.200380e+00 
1.214551e+00 
1.229088e+00 
1.243983e+00 
1.259230e+00 
1.274822e+00 
1.290752e+00 
1.307014e+00 
1.323601e+00 
1.340505e+00 
1.357721e+00 
1.375242e+00 
2.290224e+00 
2.264363e+00 
2.238610e+00 
2.212968e+00 
2.187439e+00 
2.162028e+00 
2.136736e+00 
2.111566e+00 
2.086522e+00 
2.061608e+00 
2.036826e+00 
2.012180e+00 
1.987673e+00 
1.963310e+00 
1.939093e+00 
1.915028e+00 
1.891117e+00 
1.867366e+00 
1.843778e+00 
1.820357e+00 
1.797109e+00 
1.774038e+00 
1.751148e+00 
1.728445e+00 
1.705934e+00 
1.683619e+00 
1.661507e+00 
1.639602e+00 
1.617910e+00 
1.596438e+00 
1.575190e+00 
1.554173e+00 
1.533394e+00 
1.512857e+00 
1.492571e+00 
1.472542e+00 
1.452776e+00 
1.433280e+00 
1.414062e+00 
1.395128e+00 
1.376487e+00 
1.358146e+00 
1.340113e+00 
1.322395e+00 
1.305001e+00 
1.287938e+00 
1.271216e+00 
1.254844e+00 
1.238829e+00 
1.223180e+00 
1.207907e+00 
1.193019e+00 
1.178525e+00 
1.164435e+00 
1.150757e+00 
1.137501e+00 
1.124677e+00 
1.112294e+00 
1.100361e+00 
1.088888e+00 
1.077885e+00 
1.067360e+00 
1.057322e+00 
1.047780e+00 
1.038743e+00 
1.030219e+00 
1.022214e+00 
1.014736e+00 
1.007787e+00 
1.001367e+00 
9.954653e-01 
9.900582e-01 
9.850940e-01 
9.804846e-01 
9.761159e-01 
9.718767e-01 
9.677292e-01 
9.636907e-01 
9.598309e-01 
9.562789e-01 
9.531259e-01 
9.504321e-01 
9.482311e-01 
9.465435e-01 
9.453810e-01 
9.447496e-01 
9.446517e-01 
9.450876e-01 
9.460564e-01 
9.475564e-01 
9.495851e-01 
9.521395e-01 
9.552161e-01 
9.587071e-01 
9.626658e-01 
9.671541e-01 
9.721878e-01 
9.777556e-01 
9.838398e-01 
9.904255e-01 
9.975009e-01 
1.005057e+00 
1.013086e+00 
1.021582e+00 
1.030536e+00 
1.039944e+00 
1.049799e+00 
1.060093e+00 
1.070820e+00 
1.081974e+00 
1.093549e+00 
1.105536e+00 
1.117930e+00 
1.130725e+00 
1.143912e+00 
1.157486e+00 
1.171440e+00 
1.185767e+00 
1.200460e+00 
1.215514e+00 
1.230920e+00 
1.246673e+00 
1.262766e+00 
1.279192e+00 
1.295944e+00 
1.313016e+00 
1.330402e+00 
1.348094e+00 
2.272511e+00 
2.246491e+00 
2.220578e+00 
2.194773e+00 
2.169079e+00 
2.143499e+00 
2.118037e+00 
2.092695e+00 
2.067476e+00 
2.042385e+00 
2.017423e+00 
1.992595e+00 
1.967905e+00 
1.943355e+00 
1.918951e+00 
1.894695e+00 
1.870592e+00 
1.846646e+00 
1.822862e+00 
1.799243e+00 
1.775795e+00 
1.752522e+00 
1.729429e+00 
1.706520e+00 
1.683802e+00 
1.661278e+00 
1.638955e+00 
1.616838e+00 
1.594933e+00 
1.573244e+00 
1.551780e+00 
1.530544e+00 
1.509544e+00 
1.488786e+00 
1.468277e+00 
1.448023e+00 
1.428031e+00 
1.408308e+00 
1.388862e+00 
1.369700e+00 
1.350829e+00 
1.332257e+00 
1.313992e+00 
1.296043e+00 
1.278418e+00 
1.261125e+00 
1.244173e+00 
1.227571e+00 
1.211328e+00 
1.195453e+00 
1.179956e+00 
1.164846e+00 
1.150134e+00 
1.135827e+00 
1.121938e+00 
1.108474e+00 
1.095446e+00 
1.082865e+00 
1.070739e+00 
1.059078e+00 
1.047893e+00 
1.037192e+00 
1.026985e+00 
1.017282e+00 
1.008090e+00 
9.994177e-01 
9.912736e-01 
9.836636e-01 
9.765915e-01 
9.700570e-01 
9.640518e-01 
9.585524e-01 
9.535085e-01 
9.488396e-01 
9.444433e-01 
9.402062e-01 
9.360778e-01 
9.320579e-01 
9.282039e-01 
9.246487e-01 
9.214891e-01 
9.187896e-01 
9.165863e-01 
9.149028e-01 
9.137523e-01 
9.131414e-01 
9.130724e-01 
9.135458e-01 
9.145604e-01 
9.161142e-01 
9.182045e-01 
9.208279e-01 
9.239809e-01 
9.274265e-01 
9.312897e-01 
9.357164e-01 
9.407460e-01 
9.463581e-01 
9.525196e-01 
9.592027e-01 
9.663882e-01 
9.740629e-01 
9.822167e-01 
9.908417e-01 
9.999304e-01 
1.009476e+00 
1.019471e+00 
1.029910e+00 
1.040785e+00 
1.052089e+00 
1.063815e+00 
1.075957e+00 
1.088508e+00 
1.101460e+00 
1.114808e+00 
1.128543e+00 
1.142660e+00 
1.157151e+00 
1.172010e+00 
1.187230e+00 
1.202805e+00 
1.218727e+00 
1.234989e+00 
1.251587e+00 
1.268511e+00 
1.285757e+00 
1.303318e+00 
1.321186e+00 
2.254971e+00 
2.228797e+00 
2.202726e+00 
2.176761e+00 
2.150906e+00 
2.125163e+00 
2.099535e+00 
2.074026e+00 
2.048639e+00 
2.023376e+00 
1.998242e+00 
1.973239e+00 
1.948372e+00 
1.923644e+00 
1.899059e+00 