# vtk DataFile Version 2.0 
Quadtree Mesh 
ASCII 
DATASET UNSTRUCTURED_GRID 
POINTS 16384 double 
-1.000000e+00 -1.000000e+00 0.000000e+00
-9.842520e-01 -1.000000e+00 0.000000e+00
-9.685039e-01 -1.000000e+00 0.000000e+00
-9.527559e-01 -1.000000e+00 0.000000e+00
-9.370079e-01 -1.000000e+00 0.000000e+00
-9.212598e-01 -1.000000e+00 0.000000e+00
-9.055118e-01 -1.000000e+00 0.000000e+00
-8.897638e-01 -1.000000e+00 0.000000e+00
-8.740157e-01 -1.000000e+00 0.000000e+00
-8.582677e-01 -1.000000e+00 0.000000e+00
-8.425197e-01 -1.000000e+00 0.000000e+00
-8.267717e-01 -1.000000e+00 0.000000e+00
-8.110236e-01 -1.000000e+00 0.000000e+00
-7.952756e-01 -1.000000e+00 0.000000e+00
-7.795276e-01 -1.000000e+00 0.000000e+00
-7.637795e-01 -1.000000e+00 0.000000e+00
-7.480315e-01 -1.000000e+00 0.000000e+00
-7.322835e-01 -1.000000e+00 0.000000e+00
-7.165354e-01 -1.000000e+00 0.000000e+00
-7.007874e-01 -1.000000e+00 0.000000e+00
-6.850394e-01 -1.000000e+00 0.000000e+00
-6.692913e-01 -1.000000e+00 0.000000e+00
-6.535433e-01 -1.000000e+00 0.000000e+00
-6.377953e-01 -1.000000e+00 0.000000e+00
-6.220472e-01 -1.000000e+00 0.000000e+00
-6.062992e-01 -1.000000e+00 0.000000e+00
-5.905512e-01 -1.000000e+00 0.000000e+00
-5.748031e-01 -1.000000e+00 0.000000e+00
-5.590551e-01 -1.000000e+00 0.000000e+00
-5.433071e-01 -1.000000e+00 0.000000e+00
-5.275591e-01 -1.000000e+00 0.000000e+00
-5.118110e-01 -1.000000e+00 0.000000e+00
-4.960630e-01 -1.000000e+00 0.000000e+00
-4.803150e-01 -1.000000e+00 0.000000e+00
-4.645669e-01 -1.000000e+00 0.000000e+00
-4.488189e-01 -1.000000e+00 0.000000e+00
-4.330709e-01 -1.000000e+00 0.000000e+00
-4.173228e-01 -1.000000e+00 0.000000e+00
-4.015748e-01 -1.000000e+00 0.000000e+00
-3.858268e-01 -1.000000e+00 0.000000e+00
-3.700787e-01 -1.000000e+00 0.000000e+00
-3.543307e-01 -1.000000e+00 0.000000e+00
-3.385827e-01 -1.000000e+00 0.000000e+00
-3.228346e-01 -1.000000e+00 0.000000e+00
-3.070866e-01 -1.000000e+00 0.000000e+00
-2.913386e-01 -1.000000e+00 0.000000e+00
-2.755906e-01 -1.000000e+00 0.000000e+00
-2.598425e-01 -1.000000e+00 0.000000e+00
-2.440945e-01 -1.000000e+00 0.000000e+00
-2.283465e-01 -1.000000e+00 0.000000e+00
-2.125984e-01 -1.000000e+00 0.000000e+00
-1.968504e-01 -1.000000e+00 0.000000e+00
-1.811024e-01 -1.000000e+00 0.000000e+00
-1.653543e-01 -1.000000e+00 0.000000e+00
-1.496063e-01 -1.000000e+00 0.000000e+00
-1.338583e-01 -1.000000e+00 0.000000e+00
-1.181102e-01 -1.000000e+00 0.000000e+00
-1.023622e-01 -1.000000e+00 0.000000e+00
-8.661417e-02 -1.000000e+00 0.000000e+00
-7.086614e-02 -1.000000e+00 0.000000e+00
-5.511811e-02 -1.000000e+00 0.000000e+00
-3.937008e-02 -1.000000e+00 0.000000e+00
-2.362205e-02 -1.000000e+00 0.000000e+00
-7.874016e-03 -1.000000e+00 0.000000e+00
7.874016e-03 -1.000000e+00 0.000000e+00
2.362205e-02 -1.000000e+00 0.000000e+00
3.937008e-02 -1.000000e+00 0.000000e+00
5.511811e-02 -1.000000e+00 0.000000e+00
7.086614e-02 -1.000000e+00 0.000000e+00
8.661417e-02 -1.000000e+00 0.000000e+00
1.023622e-01 -1.000000e+00 0.000000e+00
1.181102e-01 -1.000000e+00 0.000000e+00
1.338583e-01 -1.000000e+00 0.000000e+00
1.496063e-01 -1.000000e+00 0.000000e+00
1.653543e-01 -1.000000e+00 0.000000e+00
1.811024e-01 -1.000000e+00 0.000000e+00
1.968504e-01 -1.000000e+00 0.000000e+00
2.125984e-01 -1.000000e+00 0.000000e+00
2.283465e-01 -1.000000e+00 0.000000e+00
2.440945e-01 -1.000000e+00 0.000000e+00
2.598425e-01 -1.000000e+00 0.000000e+00
2.755906e-01 -1.000000e+00 0.000000e+00
2.913386e-01 -1.000000e+00 0.000000e+00
3.070866e-01 -1.000000e+00 0.000000e+00
3.228346e-01 -1.000000e+00 0.000000e+00
3.385827e-01 -1.000000e+00 0.000000e+00
3.543307e-01 -1.000000e+00 0.000000e+00
3.700787e-01 -1.000000e+00 0.000000e+00
3.858268e-01 -1.000000e+00 0.000000e+00
4.015748e-01 -1.000000e+00 0.000000e+00
4.173228e-01 -1.000000e+00 0.000000e+00
4.330709e-01 -1.000000e+00 0.000000e+00
4.488189e-01 -1.000000e+00 0.000000e+00
4.645669e-01 -1.000000e+00 0.000000e+00
4.803150e-01 -1.000000e+00 0.000000e+00
4.960630e-01 -1.000000e+00 0.000000e+00
5.118110e-01 -1.000000e+00 0.000000e+00
5.275591e-01 -1.000000e+00 0.000000e+00
5.433071e-01 -1.000000e+00 0.000000e+00
5.590551e-01 -1.000000e+00 0.000000e+00
5.748031e-01 -1.000000e+00 0.000000e+00
5.905512e-01 -1.000000e+00 0.000000e+00
6.062992e-01 -1.000000e+00 0.000000e+00
6.220472e-01 -1.000000e+00 0.000000e+00
6.377953e-01 -1.000000e+00 0.000000e+00
6.535433e-01 -1.000000e+00 0.000000e+00
6.692913e-01 -1.000000e+00 0.000000e+00
6.850394e-01 -1.000000e+00 0.000000e+00
7.007874e-01 -1.000000e+00 0.000000e+00
7.165354e-01 -1.000000e+00 0.000000e+00
7.322835e-01 -1.000000e+00 0.000000e+00
7.480315e-01 -1.000000e+00 0.000000e+00
7.637795e-01 -1.000000e+00 0.000000e+00
7.795276e-01 -1.000000e+00 0.000000e+00
7.952756e-01 -1.000000e+00 0.000000e+00
8.110236e-01 -1.000000e+00 0.000000e+00
8.267717e-01 -1.000000e+00 0.000000e+00
8.425197e-01 -1.000000e+00 0.000000e+00
8.582677e-01 -1.000000e+00 0.000000e+00
8.740157e-01 -1.000000e+00 0.000000e+00
8.897638e-01 -1.000000e+00 0.000000e+00
9.055118e-01 -1.000000e+00 0.000000e+00
9.212598e-01 -1.000000e+00 0.000000e+00
9.370079e-01 -1.000000e+00 0.000000e+00
9.527559e-01 -1.000000e+00 0.000000e+00
9.685039e-01 -1.000000e+00 0.000000e+00
9.842520e-01 -1.000000e+00 0.000000e+00
1.000000e+00 -1.000000e+00 0.000000e+00
-1.000000e+00 -9.842520e-01 0.000000e+00
-9.842520e-01 -9.842520e-01 0.000000e+00
-9.685039e-01 -9.842520e-01 0.000000e+00
-9.527559e-01 -9.842520e-01 0.000000e+00
-9.370079e-01 -9.842520e-01 0.000000e+00
-9.212598e-01 -9.842520e-01 0.000000e+00
-9.055118e-01 -9.842520e-01 0.000000e+00
-8.897638e-01 -9.842520e-01 0.000000e+00
-8.740157e-01 -9.842520e-01 0.000000e+00
-8.582677e-01 -9.842520e-01 0.000000e+00
-8.425197e-01 -9.842520e-01 0.000000e+00
-8.267717e-01 -9.842520e-01 0.000000e+00
-8.110236e-01 -9.842520e-01 0.000000e+00
-7.952756e-01 -9.842520e-01 0.000000e+00
-7.795276e-01 -9.842520e-01 0.000000e+00
-7.637795e-01 -9.842520e-01 0.000000e+00
-7.480315e-01 -9.842520e-01 0.000000e+00
-7.322835e-01 -9.842520e-01 0.000000e+00
-7.165354e-01 -9.842520e-01 0.000000e+00
-7.007874e-01 -9.842520e-01 0.000000e+00
-6.850394e-01 -9.842520e-01 0.000000e+00
-6.692913e-01 -9.842520e-01 0.000000e+00
-6.535433e-01 -9.842520e-01 0.000000e+00
-6.377953e-01 -9.842520e-01 0.000000e+00
-6.220472e-01 -9.842520e-01 0.000000e+00
-6.062992e-01 -9.842520e-01 0.000000e+00
-5.905512e-01 -9.842520e-01 0.000000e+00
-5.748031e-01 -9.842520e-01 0.000000e+00
-5.590551e-01 -9.842520e-01 0.000000e+00
-5.433071e-01 -9.842520e-01 0.000000e+00
-5.275591e-01 -9.842520e-01 0.000000e+00
-5.118110e-01 -9.842520e-01 0.000000e+00
-4.960630e-01 -9.842520e-01 0.000000e+00
-4.803150e-01 -9.842520e-01 0.000000e+00
-4.645669e-01 -9.842520e-01 0.000000e+00
-4.488189e-01 -9.842520e-01 0.000000e+00
-4.330709e-01 -9.842520e-01 0.000000e+00
-4.173228e-01 -9.842520e-01 0.000000e+00
-4.015748e-01 -9.842520e-01 0.000000e+00
-3.858268e-01 -9.842520e-01 0.000000e+00
-3.700787e-01 -9.842520e-01 0.000000e+00
-3.543307e-01 -9.842520e-01 0.000000e+00
-3.385827e-01 -9.842520e-01 0.000000e+00
-3.228346e-01 -9.842520e-01 0.000000e+00
-3.070866e-01 -9.842520e-01 0.000000e+00
-2.913386e-01 -9.842520e-01 0.000000e+00
-2.755906e-01 -9.842520e-01 0.000000e+00
-2.598425e-01 -9.842520e-01 0.000000e+00
-2.440945e-01 -9.842520e-01 0.000000e+00
-2.283465e-01 -9.842520e-01 0.000000e+00
-2.125984e-01 -9.842520e-01 0.000000e+00
-1.968504e-01 -9.842520e-01 0.000000e+00
-1.811024e-01 -9.842520e-01 0.000000e+00
-1.653543e-01 -9.842520e-01 0.000000e+00
-1.496063e-01 -9.842520e-01 0.000000e+00
-1.338583e-01 -9.842520e-01 0.000000e+00
-1.181102e-01 -9.842520e-01 0.000000e+00
-1.023622e-01 -9.842520e-01 0.000000e+00
-8.661417e-02 -9.842520e-01 0.000000e+00
-7.086614e-02 -9.842520e-01 0.000000e+00
-5.511811e-02 -9.842520e-01 0.000000e+00
-3.937008e-02 -9.842520e-01 0.000000e+00
-2.362205e-02 -9.842520e-01 0.000000e+00
-7.874016e-03 -9.842520e-01 0.000000e+00
7.874016e-03 -9.842520e-01 0.000000e+00
2.362205e-02 -9.842520e-01 0.000000e+00
3.937008e-02 -9.842520e-01 0.000000e+00
5.511811e-02 -9.842520e-01 0.000000e+00
7.086614e-02 -9.842520e-01 0.000000e+00
8.661417e-02 -9.842520e-01 0.000000e+00
1.023622e-01 -9.842520e-01 0.000000e+00
1.181102e-01 -9.842520e-01 0.000000e+00
1.338583e-01 -9.842520e-01 0.000000e+00
1.496063e-01 -9.842520e-01 0.000000e+00
1.653543e-01 -9.842520e-01 0.000000e+00
1.811024e-01 -9.842520e-01 0.000000e+00
1.968504e-01 -9.842520e-01 0.000000e+00
2.125984e-01 -9.842520e-01 0.000000e+00
2.283465e-01 -9.842520e-01 0.000000e+00
2.440945e-01 -9.842520e-01 0.000000e+00
2.598425e-01 -9.842520e-01 0.000000e+00
2.755906e-01 -9.842520e-01 0.000000e+00
2.913386e-01 -9.842520e-01 0.000000e+00
3.070866e-01 -9.842520e-01 0.000000e+00
3.228346e-01 -9.842520e-01 0.000000e+00
3.385827e-01 -9.842520e-01 0.000000e+00
3.543307e-01 -9.842520e-01 0.000000e+00
3.700787e-01 -9.842520e-01 0.000000e+00
3.858268e-01 -9.842520e-01 0.000000e+00
4.015748e-01 -9.842520e-01 0.000000e+00
4.173228e-01 -9.842520e-01 0.000000e+00
4.330709e-01 -9.842520e-01 0.000000e+00
4.488189e-01 -9.842520e-01 0.000000e+00
4.645669e-01 -9.842520e-01 0.000000e+00
4.803150e-01 -9.842520e-01 0.000000e+00
4.960630e-01 -9.842520e-01 0.000000e+00
5.118110e-01 -9.842520e-01 0.000000e+00
5.275591e-01 -9.842520e-01 0.000000e+00
5.433071e-01 -9.842520e-01 0.000000e+00
5.590551e-01 -9.842520e-01 0.000000e+00
5.748031e-01 -9.842520e-01 0.000000e+00
5.905512e-01 -9.842520e-01 0.000000e+00
6.062992e-01 -9.842520e-01 0.000000e+00
6.220472e-01 -9.842520e-01 0.000000e+00
6.377953e-01 -9.842520e-01 0.000000e+00
6.535433e-01 -9.842520e-01 0.000000e+00
6.692913e-01 -9.842520e-01 0.000000e+00
6.850394e-01 -9.842520e-01 0.000000e+00
7.007874e-01 -9.842520e-01 0.000000e+00
7.165354e-01 -9.842520e-01 0.000000e+00
7.322835e-01 -9.842520e-01 0.000000e+00
7.480315e-01 -9.842520e-01 0.000000e+00
7.637795e-01 -9.842520e-01 0.000000e+00
7.795276e-01 -9.842520e-01 0.000000e+00
7.952756e-01 -9.842520e-01 0.000000e+00
8.110236e-01 -9.842520e-01 0.000000e+00
[...]
POINT_DATA 16384 
SCALARS concentration double 1 
LOOKUP_TABLE default 
2.303188e+00 
2.278687e+00 
2.254314e+00 
2.230070e+00 
2.205958e+00 
2.181983e+00 
2.158145e+00 
2.134450e+00 
2.110898e+00 
2.087494e+00 
2.064241e+00 
2.041142e+00 
2.018200e+00 
1.995418e+00 
1.972801e+00 
1.950351e+00 
1.928072e+00 
1.905968e+00 
1.884043e+00 
1.862301e+00 
1.840745e+00 
1.819379e+00 
1.798209e+00 
1.777237e+00 
1.756468e+00 
1.735907e+00 
1.715559e+00 
1.695427e+00 
1.675517e+00 
1.655833e+00 
1.636381e+00 
1.617165e+00 
1.598190e+00 
1.579463e+00 
1.560987e+00 
1.542770e+00 
1.524816e+00 
1.507131e+00 
1.489721e+00 
1.472592e+00 
1.455751e+00 
1.439203e+00 
1.422955e+00 
1.407013e+00 
1.391385e+00 
1.376076e+00 
1.361094e+00 
1.346446e+00 
1.332139e+00 
1.318179e+00 
1.304574e+00 
1.291331e+00 
1.278457e+00 
1.265959e+00 
1.253845e+00 
1.242122e+00 
1.230796e+00 
1.219874e+00 
1.209364e+00 
1.199272e+00 
1.189604e+00 
1.180367e+00 
1.171567e+00 
1.163209e+00 
1.155299e+00 
1.147838e+00 
1.140831e+00 
1.134273e+00 
1.128161e+00 
1.122478e+00 
1.117199e+00 
1.112281e+00 
1.107663e+00 
1.103272e+00 
1.099029e+00 
1.094866e+00 
1.090730e+00 
1.086628e+00 
1.082606e+00 
1.078734e+00 
1.075088e+00 
1.071738e+00 
1.068739e+00 
1.066128e+00 
1.063928e+00 
1.062156e+00 
1.060821e+00 
1.059930e+00 
1.059485e+00 
1.059487e+00 
1.059936e+00 
1.060833e+00 
1.062175e+00 
1.063958e+00 
1.066171e+00 
1.068804e+00 
1.071850e+00 
1.075308e+00 
1.079184e+00 
1.083484e+00 
1.088212e+00 
1.093371e+00 
1.098958e+00 
1.104971e+00 
1.111405e+00 
1.118253e+00 
1.125508e+00 
1.133166e+00 
1.141219e+00 
1.149662e+00 
1.158490e+00 
1.167698e+00 
1.177279e+00 
1.187230e+00 
1.197546e+00 
1.208222e+00 
1.219252e+00 
1.230633e+00 
1.242360e+00 
1.254429e+00 
1.266834e+00 
1.279570e+00 
1.292635e+00 
1.306022e+00 
1.319729e+00 
1.333749e+00 
1.348079e+00 
1.362714e+00 
2.283558e+00 
2.258922e+00 
2.234410e+00 
2.210026e+00 
2.185771e+00 
2.161649e+00 
2.137663e+00 
2.113815e+00 
2.090109e+00 
2.066547e+00 
2.043134e+00 
2.019871e+00 
1.996763e+00 
1.973812e+00 
1.951023e+00 
1.928398e+00 
1.905942e+00 
1.883658e+00 
1.861551e+00 
1.839623e+00 
1.817879e+00 
1.796323e+00 
1.774960e+00 
1.753793e+00 
1.732828e+00 
1.712068e+00 
1.691518e+00 
1.671183e+00 
1.651068e+00 
1.631177e+00 
1.611516e+00 
1.592090e+00 
1.572904e+00 
1.553964e+00 
1.535275e+00 
1.516842e+00 
1.498673e+00 
1.480772e+00 
1.463146e+00 
1.445801e+00 
1.428744e+00 
1.411981e+00 
1.395519e+00 
1.379365e+00 
1.363525e+00 
1.348007e+00 
1.332818e+00 
1.317966e+00 
1.303456e+00 
1.289298e+00 
1.275498e+00 
1.262064e+00 
1.249003e+00 
1.236323e+00 
1.224031e+00 
1.212134e+00 
1.200639e+00 
1.189554e+00 
1.178886e+00 
1.168641e+00 
1.158826e+00 
1.149448e+00 
1.140512e+00 
1.132025e+00 
1.123991e+00 
1.116414e+00 
1.109296e+00 
1.102635e+00 
1.096427e+00 
1.090657e+00 
1.085302e+00 
1.080322e+00 
1.075661e+00 
1.071246e+00 
1.066997e+00 
1.062838e+00 
1.058707e+00 
1.054612e+00 
1.050596e+00 
1.046723e+00 
1.043070e+00 
1.039709e+00 
1.036697e+00 
1.034074e+00 
1.031867e+00 
1.030092e+00 
1.028759e+00 
1.027875e+00 
1.027443e+00 
1.027463e+00 
1.027937e+00 
1.028864e+00 
1.030241e+00 
1.032065e+00 
1.034326e+00 
1.037014e+00 
1.040125e+00 
1.043656e+00 
1.047612e+00 
1.051997e+00 
1.056814e+00 
1.062065e+00 
1.067748e+00 
1.073859e+00 
1.080392e+00 
1.087342e+00 
1.094702e+00 
1.102467e+00 
1.110630e+00 
1.119185e+00 
1.128128e+00 
1.137453e+00 
1.147154e+00 
1.157227e+00 
1.167666e+00 
1.178467e+00 
1.189625e+00 
1.201135e+00 
1.212991e+00 
1.225190e+00 
1.237727e+00 
1.250596e+00 
1.263794e+00 
1.277315e+00 
1.291155e+00 
1.305309e+00 
1.319773e+00 
1.334542e+00 
2.264177e+00 
2.239398e+00 
2.214740e+00 
2.190206e+00 
2.165800e+00 
2.141524e+00 
2.117380e+00 
2.093372e+00 
2.069503e+00 
2.045776e+00 
2.022194e+00 
1.998760e+00 
1.975478e+00 
1.952351e+00 
1.929383e+00 
1.906576e+00 
1.883936e+00 
1.861466e+00 
1.839169e+00 
1.817050e+00 
1.795113e+00 
1.773361e+00 
1.751800e+00 
1.730432e+00 
1.709264e+00 
1.688299e+00 
1.667542e+00 
1.646998e+00 
1.626672e+00 
1.606569e+00 
1.586693e+00 
1.567051e+00 
1.547648e+00 
1.528489e+00 
1.509580e+00 
1.490927e+00 
1.472537e+00 
1.454415e+00 
1.436568e+00 
1.419002e+00 
1.401725e+00 
1.384743e+00 
1.368064e+00 
1.351694e+00 
1.335640e+00 
1.319911e+00 
1.304514e+00 
1.289456e+00 
1.274745e+00 
1.260388e+00 
1.246394e+00 
1.232770e+00 
1.219523e+00 
1.206661e+00 
1.194192e+00 
1.182124e+00 
1.170463e+00 
1.159216e+00 
1.148392e+00 
1.137996e+00 
1.128037e+00 
1.118519e+00 
1.109450e+00 
1.100835e+00 
1.092679e+00 
1.084986e+00 
1.077759e+00 
1.070996e+00 
1.064693e+00 
1.058839e+00 
1.053410e+00 
1.048371e+00 
1.043670e+00 
1.039237e+00 
1.034988e+00 
1.030839e+00 
1.026726e+00 
1.022649e+00 
1.018646e+00 
1.014778e+00 
1.011121e+00 
1.007751e+00 
1.004730e+00 
1.002099e+00 
9.998874e-01 
9.981120e-01 
9.967841e-01 
9.959098e-01 
9.954926e-01 
9.955339e-01 
9.960339e-01 
9.969918e-01 
9.984063e-01 
1.000273e+00 
1.002585e+00 
1.005335e+00 
1.008516e+00 
1.012128e+00 
1.016172e+00 
1.020652e+00 
1.025568e+00 
1.030920e+00 
1.036705e+00 
1.042919e+00 
1.049558e+00 
1.056615e+00 
1.064084e+00 
1.071960e+00 
1.080237e+00 
1.088909e+00 
1.097971e+00 
1.107418e+00 
1.117243e+00 
1.127443e+00 
1.138011e+00 
1.148943e+00 
1.160233e+00 
1.171877e+00 
1.183869e+00 
1.196205e+00 
1.208879e+00 
1.221887e+00 
1.235224e+00 
1.248884e+00 
1.262863e+00 
1.277157e+00 
1.291760e+00 
1.306669e+00 
2.245002e+00 
2.220072e+00 
2.195261e+00 
2.170571e+00 
2.146007e+00 
2.121569e+00 
2.097261e+00 
2.073087e+00 
2.049049e+00 
2.025150e+00 
2.001394e+00 
1.977783e+00 
1.954322e+00 
1.931014e+00 
1.907861e+00 
1.884869e+00 
1.862039e+00 
1.839378e+00 
1.816887e+00 
1.794571e+00 
1.772435e+00 
1.750482e+00 
1.728716e+00 
1.707143e+00 
1.685766e+00 
1.664590e+00 
1.643620e+00 
1.622860e+00 
1.602317e+00 
1.581994e+00 
1.561898e+00 
1.542033e+00 
1.522406e+00 
1.503022e+00 
1.483888e+00 
1.465010e+00 
1.446394e+00 
1.428046e+00 
1.409974e+00 
1.392185e+00 
1.374686e+00 
1.357484e+00 
1.340586e+00 
1.324000e+00 
1.307734e+00 
1.291795e+00 
1.276191e+00 
1.260931e+00 
1.246021e+00 
1.231470e+00 
1.217286e+00 
1.203476e+00 
1.190049e+00 
1.177011e+00 
1.164371e+00 
1.152136e+00 
1.140313e+00 
1.128910e+00 
1.117935e+00 
1.107393e+00 
1.097293e+00 
1.087640e+00 
1.078441e+00 
1.069701e+00 
1.061426e+00 
1.053621e+00 
1.046287e+00 
1.039424e+00 
1.033029e+00 
1.027092e+00 
1.021592e+00 
1.016498e+00 
1.011761e+00 
1.007312e+00 
1.003067e+00 
9.989372e-01 
9.948567e-01 
9.908106e-01 
9.868298e-01 
9.829709e-01 
9.793138e-01 
9.759390e-01 
9.729112e-01 
9.702756e-01 
9.680620e-01 
9.662891e-01 
9.649684e-01 
9.641065e-01 
9.637070e-01 
9.637715e-01 
9.643001e-01 
9.652922e-01 
9.667461e-01 
9.686587e-01 
9.710243e-01 
9.738369e-01 
9.770921e-01 
9.807878e-01 
9.849240e-01 
9.895009e-01 
9.945178e-01 
9.999730e-01 
1.005863e+00 
1.012184e+00 
1.018931e+00 
1.026098e+00 
1.033679e+00 
1.041670e+00 
1.050064e+00 
1.058857e+00 
1.068042e+00 
1.077614e+00 
1.087569e+00 
1.097899e+00 
1.108601e+00 
1.119670e+00 
1.131098e+00 
1.142882e+00 
1.155017e+00 
1.167496e+00 
1.180314e+00 
1.193468e+00 
1.206950e+00 
1.220757e+00 
1.234883e+00 
1.249323e+00 
1.264073e+00 
1.279127e+00 
2.225998e+00 
2.200912e+00 
2.175942e+00 
2.151092e+00 
2.126363e+00 
2.101760e+00 
2.077284e+00 
2.052938e+00 
2.028727e+00 
2.004652e+00 
1.980718e+00 
1.956926e+00 
1.933281e+00 
1.909787e+00 
1.886445e+00 
1.863261e+00 
1.840238e+00 
1.817379e+00 
1.794689e+00 
1.772171e+00 
1.749830e+00 
1.727669e+00 
1.705693e+00 
1.683907e+00 
1.662314e+00 
1.640921e+00 
1.619731e+00 
1.598750e+00 
1.577982e+00 
1.557434e+00 
1.537112e+00 
1.517020e+00 
1.497165e+00 
1.477553e+00 
1.458191e+00 
1.439085e+00 
1.420242e+00 
1.401669e+00 
1.383374e+00 
1.365363e+00 
1.347645e+00 
1.330226e+00 
1.313116e+00 
1.296320e+00 
1.279848e+00 
1.263707e+00 
1.247905e+00 
1.232451e+00 
1.217352e+00 
1.202615e+00 
1.188250e+00 
1.174264e+00 
1.160665e+00 
1.147460e+00 
1.134657e+00 
1.122263e+00 
1.110287e+00 
1.098736e+00 
1.087615e+00 
1.076934e+00 
1.066698e+00 
1.056915e+00 
1.047590e+00 
1.038730e+00 
1.030340e+00 
1.022424e+00 
1.014986e+00 
1.008026e+00 
1.001541e+00 
9.955218e-01 
9.899527e-01 
9.848043e-01 
9.800311e-01 
9.755671e-01 
9.713271e-01 
9.672200e-01 
9.631772e-01 
9.591736e-01 
9.552212e-01 
9.513749e-01 
9.477193e-01 
9.443406e-01 
9.413073e-01 
9.386678e-01 
9.364532e-01 
9.346834e-01 
9.333705e-01 
9.325215e-01 
9.321404e-01 
9.322287e-01 
9.327868e-01 
9.338138e-01 
9.353083e-01 
9.372676e-01 
9.396874e-01 
9.425631e-01 
9.458909e-01 
9.496681e-01 
9.538932e-01 
9.585645e-01 
9.636798e-01 
9.692361e-01 
9.752298e-01 
9.816564e-01 
9.885110e-01 
9.957885e-01 
1.003483e+00 
1.011591e+00 
1.020105e+00 
1.029020e+00 
1.038332e+00 
1.048034e+00 
1.058121e+00 
1.068588e+00 
1.079429e+00 
1.090639e+00 
1.102212e+00 
1.114142e+00 
1.126425e+00 
1.139055e+00 
1.152026e+00 
1.165332e+00 
1.178969e+00 
1.192931e+00 
1.207212e+00 
1.221808e+00 
1.236714e+00 
1.251923e+00 
2.207142e+00 
2.181896e+00 
2.156764e+00 
2.131749e+00 
2.106853e+00 
2.082080e+00 
2.057432e+00 
2.032912e+00 
2.008523e+00 
1.984268e+00 
1.960151e+00 
1.936174e+00 
1.912341e+00 
1.888655e+00 
1.865120e+00 
1.841739e+00 
1.818516e+00 
1.795455e+00 
1.772559e+00 
1.749833e+00 
1.727280e+00 
1.704906e+00 
1.682714e+00 
1.660709e+00 
1.638896e+00 
1.617280e+00 
1.595866e+00 
1.574660e+00 
1.553666e+00 
1.532891e+00 
1.512341e+00 
1.492023e+00 
1.471941e+00 
1.452104e+00 
1.432518e+00 
1.413190e+00 
1.394127e+00 
1.375336e+00 
1.356826e+00 
1.338604e+00 
1.320677e+00 
1.303054e+00 
1.285742e+00 
1.268749e+00 
1.252084e+00 
1.235754e+00 
1.219767e+00 
1.204131e+00 
1.188855e+00 
1.173946e+00 
1.159411e+00 
1.145260e+00 
1.131499e+00 
1.118136e+00 
1.105179e+00 
1.092635e+00 
1.080512e+00 
1.068817e+00 
1.057558e+00 
1.046741e+00 
1.036373e+00 
1.026461e+00 
1.017013e+00 
1.008033e+00 
9.995281e-01 
9.915024e-01 
9.839595e-01 
9.769008e-01 
9.703244e-01 
9.642234e-01 
9.585832e-01 
9.533776e-01 
9.485643e-01 
9.440794e-01 
9.398386e-01 
9.357489e-01 
9.317363e-01 
9.277721e-01 
9.238496e-01 
9.200142e-01 
9.163577e-01 
9.129724e-01 
9.099309e-01 
9.072845e-01 
9.050658e-01 
9.032960e-01 
9.019879e-01 
9.011493e-01 
9.007841e-01 
9.008944e-01 
9.014803e-01 
9.025411e-01 
9.040753e-01 
9.060804e-01 
9.085530e-01 
9.114894e-01 
9.148860e-01 
9.187398e-01 
9.230479e-01 
9.278076e-01 
9.330156e-01 
9.386682e-01 
9.447614e-01 
9.512905e-01 
9.582508e-01 
9.656374e-01 
9.734451e-01 
9.816686e-01 
9.903028e-01 
9.993423e-01 
1.008782e+00 
1.018616e+00 
1.028839e+00 
1.039445e+00 
1.050429e+00 
1.061785e+00 
1.073508e+00 
1.085591e+00 
1.098029e+00 
1.110817e+00 
1.123948e+00 
1.137417e+00 
1.151217e+00 
1.165344e+00 
1.179792e+00 
1.194555e+00 
1.209628e+00 
1.225005e+00 
2.188419e+00 
2.163010e+00 
2.137713e+00 
2.112530e+00 
2.087464e+00 
2.062518e+00 
2.037694e+00 
2.012996e+00 
1.988426e+00 
1.963987e+00 
1.939683e+00 
1.915516e+00 
1.891491e+00 
1.867609e+00 
1.843875e+00 
1.820293e+00 
1.796866e+00 
1.773598e+00 
1.750492e+00 
1.727554e+00 
1.704788e+00 
1.682197e+00 
1.659787e+00 
1.637563e+00 
1.615529e+00 
1.593692e+00 
1.572056e+00 
1.550627e+00 
1.529412e+00 
1.508416e+00 
1.487646e+00 
1.467108e+00 
1.446810e+00 
1.426758e+00 
1.406959e+00 
1.387421e+00 
1.368152e+00 
1.349158e+00 
1.330448e+00 
1.312029e+00 
1.293909e+00 
1.276096e+00 
1.258598e+00 
1.241423e+00 
1.224579e+00 
1.208073e+00 
1.191914e+00 
1.176109e+00 
1.160667e+00 
1.145594e+00 
1.130899e+00 
1.116589e+00 
1.102673e+00 
1.089157e+00 
1.076049e+00 
1.063357e+00 
1.051089e+00 
1.039251e+00 
1.027851e+00 
1.016896e+00 
1.006393e+00 
9.963504e-01 
9.867738e-01 
9.776699e-01 
9.690448e-01 
9.609037e-01 
9.532506e-01 
9.460879e-01 
9.394147e-01 
9.332255e-01 
9.275079e-01 
9.222380e-01 
9.173757e-01 
9.128591e-01 
9.086048e-01 
9.045178e-01 
9.005194e-01 
8.965749e-01 
8.926754e-01 
8.888433e-01 
8.851794e-01 
8.817817e-01 
8.787263e-01 
8.760674e-01 
8.738394e-01 
8.720648e-01 
8.707576e-01 
8.699260e-01 
8.695745e-01 
8.697049e-01 
8.703176e-01 
8.714117e-01 
8.729853e-01 
8.750362e-01 
8.775612e-01 
8.805568e-01 
8.840196e-01 
8.879459e-01 
8.923323e-01 
8.971753e-01 
9.024708e-01 
9.082149e-01 
9.144031e-01 
9.210309e-01 
9.280935e-01 
9.355860e-01 
9.435036e-01 
9.518410e-01 
9.605932e-01 
9.697549e-01 
9.793209e-01 
9.892856e-01 
9.996436e-01 
1.010389e+00 
1.021517e+00 
1.033021e+00 
1.044896e+00 
1.057135e+00 
1.069732e+00 
1.082683e+00 
1.095980e+00 
1.109617e+00 
1.123590e+00 
1.137891e+00 
1.152515e+00 
1.167455e+00 
1.182707e+00 
1.198263e+00 
2.169828e+00 
2.144254e+00 
2.118790e+00 
2.093437e+00 
2.068199e+00 
2.043077e+00 
2.018075e+00 
1.993196e+00 
1.968442e+00 
1.943816e+00 
1.919322e+00 
1.894963e+00 
1.870743e+00 
1.846663e+00 
1.822729e+00 
1.798944e+00 
1.775312e+00 
1.751837e+00 
1.728523e+00 
1.705374e+00 
1.682396e+00 
1.659593e+00 
1.636969e+00 
1.614531e+00 
1.592283e+00 
1.570232e+00 
1.548383e+00 
1.526742e+00 
1.505316e+00 
1.484111e+00 
1.463134e+00 
1.442392e+00 
1.421891e+00 
1.401640e+00 
1.381644e+00 
1.361913e+00 
1.342452e+00 
1.323271e+00 
1.304375e+00 
1.285774e+00 
1.267475e+00 
1.249486e+00 
1.231814e+00 
1.214467e+00 
1.197453e+00 
1.180779e+00 
1.164454e+00 
1.148485e+00 
1.132879e+00 
1.117644e+00 
1.102789e+00 
1.088320e+00 
1.074245e+00 
1.060572e+00 
1.047309e+00 
1.034462e+00 
1.022040e+00 
1.010051e+00 
9.985010e-01 
9.873989e-01 
9.767516e-01 
9.665666e-01 
9.568512e-01 
9.476122e-01 
9.388561e-01 
9.305889e-01 
9.228154e-01 
9.155386e-01 
9.087588e-01 
9.024721e-01 
8.966676e-01 
8.913233e-01 
8.864006e-01 
8.818388e-01 
8.775552e-01 
8.734533e-01 
8.694506e-01 
8.655077e-01 
8.616144e-01 
8.577761e-01 
8.540985e-01 
8.506834e-01 
8.476100e-01 
8.449357e-01 
8.426965e-01 
8.409166e-01 
8.396109e-01 
8.387885e-01 
8.384538e-01 
8.386086e-01 
8.392529e-01 
8.403854e-01 
8.420041e-01 
8.441061e-01 
8.466883e-01 
8.497469e-01 
8.532781e-01 
8.572781e-01 
8.617426e-01 
8.666677e-01 
8.720490e-01 
8.778820e-01 
8.841623e-01 
8.908853e-01 
8.980462e-01 
9.056404e-01 
9.136629e-01 
9.221089e-01 
9.309734e-01 
9.402515e-01 
9.499378e-01 
9.600273e-01 
9.705145e-01 
9.813940e-01 
9.926602e-01 
1.004307e+00 
1.016330e+00 
1.028721e+00 
1.041476e+00 
1.054588e+00 
1.068051e+00 
1.081859e+00 
1.096005e+00 
1.110483e+00 
1.125288e+00 
1.140412e+00 
1.155849e+00 
1.171594e+00 
2.151390e+00 
2.125651e+00 
2.100019e+00 
2.074496e+00 
2.049084e+00 
2.023786e+00 
1.998605e+00 
1.973544e+00 
1.948606e+00 
1.923794e+00 
1.899111e+00 
1.874560e+00 
1.850145e+00 
1.825870e+00 
1.801738e+00 
1.777754e+00 
1.753920e+00 
1.730243e+00 
1.706725e+00 
1.683373e+00 
1.660190e+00 
1.637182e+00 
1.614354e+00 
1.591712e+00 
1.569262e+00 
1.547009e+00 
1.524961e+00 
1.503122e+00 
1.481499e+00 
1.460099e+00 
1.438929e+00 
1.417997e+00 
1.397308e+00 
1.376871e+00 
1.356692e+00 
1.336779e+00 
1.317139e+00 
1.297781e+00 
1.278710e+00 
1.259935e+00 
1.241464e+00 
1.223303e+00 
1.205460e+00 
1.187943e+00 
1.170760e+00 
1.153917e+00 
1.137423e+00 
1.121285e+00 
1.105510e+00 
1.090097e+00 
1.075072e+00 
1.060433e+00 
1.046189e+00 
1.032346e+00 
1.018914e+00 
1.005899e+00 
9.933095e-01 
9.811540e-01 
9.694399e-01 
9.581754e-01 
9.473682e-01 
9.370263e-01 
9.271574e-01 
9.177690e-01 
9.088684e-01 
9.004621e-01 
8.925557e-01 
8.851534e-01 
8.782566e-01 
8.718626e-01 
8.659617e-01 
8.605335e-01 
8.555402e-01 
8.509216e-01 
8.465957e-01 
8.424651e-01 
8.384458e-01 
8.344930e-01 
8.305950e-01 
8.267478e-01 
8.230570e-01 
8.196267e-01 
8.165390e-01 
8.138552e-01 
8.116127e-01 
8.098372e-01 
8.085448e-01 
8.077447e-01 
8.074412e-01 
8.076354e-01 
8.083266e-01 
8.095129e-01 
8.111916e-01 
8.133590e-01 
8.160115e-01 
8.191447e-01 
8.227544e-01 
8.268359e-01 
8.313847e-01 
8.363961e-01 
8.418656e-01 
8.477884e-01 
8.541599e-01 
8.609756e-01 
8.682307e-01 
8.759207e-01 
8.840411e-01 
8.925872e-01 
9.015545e-01 
9.109381e-01 
9.207334e-01 
9.309355e-01 
9.415393e-01 
9.525397e-01 
9.639315e-01 
9.757092e-01 
9.878671e-01 
1.000400e+00 
1.013301e+00 
1.026564e+00 
1.040184e+00 
1.054154e+00 
1.068467e+00 
1.083118e+00 
1.098099e+00 
1.113404e+00 
1.129027e+00 
1.144961e+00 
2.133157e+00 
2.107253e+00 
2.081453e+00 
2.055759e+00 
2.030175e+00 
2.004702e+00 
1.979343e+00 
1.954102e+00 
1.928982e+00 
1.903985e+00 
1.879115e+00 
1.854376e+00 
1.829771e+00 
1.805304e+00 
1.780980e+00 
1.756801e+00 
1.732773e+00 
1.708900e+00 
1.685187e+00 
1.661639e+00 
1.638262e+00 
1.615059e+00 
1.592038e+00 
1.569203e+00 
1.546561e+00 
1.524129e+00 
1.501901e+00 
1.479876e+00 
1.458068e+00 
1.436486e+00 
1.415136e+00 
1.394024e+00 
1.373157e+00 
1.352544e+00 
1.332190e+00 
1.312103e+00 
1.292290e+00 
1.272758e+00 
1.253515e+00 
1.234568e+00 
1.215924e+00 
1.197590e+00 
1.179574e+00 
1.161883e+00 
1.144524e+00 
1.127505e+00 
1.110834e+00 
1.094517e+00 
1.078526e+00 
1.062898e+00 
1.047688e+00 
1.032865e+00 
1.018435e+00 
1.004407e+00 
9.907897e-01 
9.775906e-01 
9.648181e-01 
9.524807e-01 
9.405867e-01 
9.291445e-01 
9.181626e-01 
9.076495e-01 
8.976134e-01 
8.880627e-01 
8.790055e-01 
8.704491e-01 
8.624003e-01 
8.548641e-01 
8.478431e-01 
8.413357e-01 
8.353333e-01 
8.298164e-01 
8.247475e-01 
8.200663e-01 
8.156918e-01 
8.115279e-01 
8.074896e-01 
8.035272e-01 
7.996259e-01 
7.957870e-01 
7.920968e-01 
7.886663e-01 
7.855812e-01 
7.829077e-01 
7.806841e-01 
7.789376e-01 
7.776850e-01 
7.769351e-01 
7.766911e-01 
7.769532e-01 
7.777196e-01 
7.789870e-01 
7.807517e-01 
7.830092e-01 
7.857546e-01 
7.889829e-01 
7.926889e-01 
7.968672e-01 
8.015128e-01 
8.066205e-01 
8.121852e-01 
8.182020e-01 
8.246663e-01 
8.315735e-01 
8.389190e-01 
8.466986e-01 
8.549081e-01 
8.635434e-01 
8.726003e-01 
8.820747e-01 
8.919624e-01 
9.022591e-01 
9.129605e-01 
9.240621e-01 
9.355590e-01 
9.474464e-01 
9.597191e-01 
9.723717e-01 
9.853987e-01 
9.987942e-01 
1.012552e+00 
1.026666e+00 
1.041130e+00 
1.055938e+00 
1.071081e+00 
1.086555e+00 
1.102352e+00 
1.118465e+00 
2.115190e+00 
2.089122e+00 
2.063155e+00 
2.037292e+00 
2.011535e+00 
1.985888e+00 
1.960353e+00 
1.934934e+00 
1.909634e+00 
1.884455e+00 
1.859402e+00 
1.834478e+00 
1.809688e+00 
1.785034e+00 
1.760523e+00 
1.736156e+00 
1.711941e+00 
1.687880e+00 
1.663980e+00 
1.640245e+00 
1.616681e+00 
1.593293e+00 
1.570086e+00 
1.547068e+00 
1.524279e+00 
1.501711e+00 
1.479320e+00 
1.457119e+00 
1.435138e+00 
1.413383e+00 
1.391860e+00 
1.370576e+00 
1.349539e+00 
1.328754e+00 
1.308229e+00 
1.287971e+00 
1.267986e+00 
1.248282e+00 
1.228865e+00 
1.209743e+00 
1.190922e+00 
1.172410e+00 
1.154214e+00 
1.136342e+00 
1.118800e+00 
1.101597e+00 
1.084739e+00 
1.068165e+00 
1.051863e+00 
1.035990e+00 
1.020581e+00 
1.005557e+00 
9.909270e-01 
9.766991e-01 
9.628818e-01 
9.494837e-01 
9.365135e-01 
9.239801e-01 
9.118923e-01 
9.002591e-01 
8.890896e-01 
8.783930e-01 
8.681785e-01 
8.584553e-01 
8.492326e-01 
8.405189e-01 
8.323221e-01 
8.246484e-01 
8.175013e-01 
8.108801e-01 
8.047772e-01 
7.991733e-01 
7.940307e-01 
7.892876e-01 
7.848660e-01 
7.806737e-01 
7.766243e-01 
7.726647e-01 
7.687751e-01 
7.649651e-01 
7.612999e-01 
7.578953e-01 
7.548423e-01 
7.522108e-01 
7.500404e-01 
7.483595e-01 
7.471850e-01 
7.465241e-01 
7.463784e-01 
7.467463e-01 
7.476242e-01 
7.490076e-01 
7.508911e-01 
7.532688e-01 
7.561347e-01 
7.594825e-01 
7.633061e-01 
7.675994e-01 
7.723564e-01 
7.775713e-01 
7.832389e-01 
7.893539e-01 
7.959115e-01 
8.029074e-01 
8.103373e-01 
8.181972e-01 
8.264836e-01 
8.351929e-01 
8.443218e-01 
8.538668e-01 
8.638248e-01 
8.741924e-01 
8.849660e-01 
8.961421e-01 
9.077168e-01 
9.196860e-01 
9.320453e-01 
9.447901e-01 
9.579154e-01 
9.714158e-01 
9.852857e-01 
9.995191e-01 
1.014110e+00 
1.029052e+00 
1.044338e+00 
1.059961e+00 
1.075914e+00 
1.092191e+00 
2.097530e+00 
2.071296e+00 
2.045161e+00 
2.019128e+00 
1.993199e+00 
1.967378e+00 
1.941668e+00 
1.916072e+00 
1.890593e+00 
1.865235e+00 
1.840002e+00 
1.814897e+00 
1.789925e+00 
1.765089e+00 
1.740395e+00 