# vtk DataFile Version 2.0 
Quadtree Mesh 
ASCII 
DATASET UNSTRUCTURED_GRID 
POINTS 16384 double 
-1.000000e+00 -1.000000e+00 0.000000e+00
-9.842520e-01 -1.000000e+00 0.000000e+00
-9.685039e-01 -1.000000e+00 0.000000e+00
-9.527559e-01 -1.000000e+00 0.000000e+00
-9.370079e-01 -1.000000e+00 0.000000e+00
-9.212598e-01 -1.000000e+00 0.000000e+00
-9.055118e-01 -1.000000e+00 0.000000e+00
-8.897638e-01 -1.000000e+00 0.000000e+00
-8.740157e-01 -1.000000e+00 0.000000e+00
-8.582677e-01 -1.000000e+00 0.000000e+00
-8.425197e-01 -1.000000e+00 0.000000e+00
-8.267717e-01 -1.000000e+00 0.000000e+00
-8.110236e-01 -1.000000e+00 0.000000e+00
-7.952756e-01 -1.000000e+00 0.000000e+00
-7.795276e-01 -1.000000e+00 0.000000e+00
-7.637795e-01 -1.000000e+00 0.000000e+00
-7.480315e-01 -1.000000e+00 0.000000e+00
-7.322835e-01 -1.000000e+00 0.000000e+00
-7.165354e-01 -1.000000e+00 0.000000e+00
-7.007874e-01 -1.000000e+00 0.000000e+00
-6.850394e-01 -1.000000e+00 0.000000e+00
-6.692913e-01 -1.000000e+00 0.000000e+00
-6.535433e-01 -1.000000e+00 0.000000e+00
-6.377953e-01 -1.000000e+00 0.000000e+00
-6.220472e-01 -1.000000e+00 0.000000e+00
-6.062992e-01 -1.000000e+00 0.000000e+00
-5.905512e-01 -1.000000e+00 0.000000e+00
-5.748031e-01 -1.000000e+00 0.000000e+00
-5.590551e-01 -1.000000e+00 0.000000e+00
-5.433071e-01 -1.000000e+00 0.000000e+00
-5.275591e-01 -1.000000e+00 0.000000e+00
-5.118110e-01 -1.000000e+00 0.000000e+00
-4.960630e-01 -1.000000e+00 0.000000e+00
-4.803150e-01 -1.000000e+00 0.000000e+00
-4.645669e-01 -1.000000e+00 0.000000e+00
-4.488189e-01 -1.000000e+00 0.000000e+00
-4.330709e-01 -1.000000e+00 0.000000e+00
-4.173228e-01 -1.000000e+00 0.000000e+00
-4.015748e-01 -1.000000e+00 0.000000e+00
-3.858268e-01 -1.000000e+00 0.000000e+00
-3.700787e-01 -1.000000e+00 0.000000e+00
-3.543307e-01 -1.000000e+00 0.000000e+00
-3.385827e-01 -1.000000e+00 0.000000e+00
-3.228346e-01 -1.000000e+00 0.000000e+00
-3.070866e-01 -1.000000e+00 0.000000e+00
-2.913386e-01 -1.000000e+00 0.000000e+00
-2.755906e-01 -1.000000e+00 0.000000e+00
-2.598425e-01 -1.000000e+00 0.000000e+00
-2.440945e-01 -1.000000e+00 0.000000e+00
-2.283465e-01 -1.000000e+00 0.000000e+00
-2.125984e-01 -1.000000e+00 0.000000e+00
-1.968504e-01 -1.000000e+00 0.000000e+00
-1.811024e-01 -1.000000e+00 0.000000e+00
-1.653543e-01 -1.000000e+00 0.000000e+00
-1.496063e-01 -1.000000e+00 0.000000e+00
-1.338583e-01 -1.000000e+00 0.000000e+00
-1.181102e-01 -1.000000e+00 0.000000e+00
-1.023622e-01 -1.000000e+00 0.000000e+00
-8.661417e-02 -1.000000e+00 0.000000e+00
-7.086614e-02 -1.000000e+00 0.000000e+00
-5.511811e-02 -1.000000e+00 0.000000e+00
-3.937008e-02 -1.000000e+00 0.000000e+00
-2.362205e-02 -1.000000e+00 0.000000e+00
-7.874016e-03 -1.000000e+00 0.000000e+00
7.874016e-03 -1.000000e+00 0.000000e+00
2.362205e-02 -1.000000e+00 0.000000e+00
3.937008e-02 -1.000000e+00 0.000000e+00
5.511811e-02 -1.000000e+00 0.000000e+00
7.086614e-02 -1.000000e+00 0.000000e+00
8.661417e-02 -1.000000e+00 0.000000e+00
1.023622e-01 -1.000000e+00 0.000000e+00
1.181102e-01 -1.000000e+00 0.000000e+00
1.338583e-01 -1.000000e+00 0.000000e+00
1.496063e-01 -1.000000e+00 0.000000e+00
1.653543e-01 -1.000000e+00 0.000000e+00
1.811024e-01 -1.000000e+00 0.000000e+00
1.968504e-01 -1.000000e+00 0.000000e+00
2.125984e-01 -1.000000e+00 0.000000e+00
2.283465e-01 -1.000000e+00 0.000000e+00
2.440945e-01 -1.000000e+00 0.000000e+00
2.598425e-01 -1.000000e+00 0.000000e+00
2.755906e-01 -1.000000e+00 0.000000e+00
2.913386e-01 -1.000000e+00 0.000000e+00
3.070866e-01 -1.000000e+00 0.000000e+00
3.228346e-01 -1.000000e+00 0.000000e+00
3.385827e-01 -1.000000e+00 0.000000e+00
3.543307e-01 -1.000000e+00 0.000000e+00
3.700787e-01 -1.000000e+00 0.000000e+00
3.858268e-01 -1.000000e+00 0.000000e+00
4.015748e-01 -1.000000e+00 0.000000e+00
4.173228e-01 -1.000000e+00 0.000000e+00
4.330709e-01 -1.000000e+00 0.000000e+00
4.488189e-01 -1.000000e+00 0.000000e+00
4.645669e-01 -1.000000e+00 0.000000e+00
4.803150e-01 -1.000000e+00 0.000000e+00
4.960630e-01 -1.000000e+00 0.000000e+00
5.118110e-01 -1.000000e+00 0.000000e+00
5.275591e-01 -1.000000e+00 0.000000e+00
5.433071e-01 -1.000000e+00 0.000000e+00
5.590551e-01 -1.000000e+00 0.000000e+00
5.748031e-01 -1.000000e+00 0.000000e+00
5.905512e-01 -1.000000e+00 0.000000e+00
6.062992e-01 -1.000000e+00 0.000000e+00
6.220472e-01 -1.000000e+00 0.000000e+00
6.377953e-01 -1.000000e+00 0.000000e+00
6.535433e-01 -1.000000e+00 0.000000e+00
6.692913e-01 -1.000000e+00 0.000000e+00
6.850394e-01 -1.000000e+00 0.000000e+00
7.007874e-01 -1.000000e+00 0.000000e+00
7.165354e-01 -1.000000e+00 0.000000e+00
7.322835e-01 -1.000000e+00 0.000000e+00
7.480315e-01 -1.000000e+00 0.000000e+00
7.637795e-01 -1.000000e+00 0.000000e+00
7.795276e-01 -1.000000e+00 0.000000e+00
7.952756e-01 -1.000000e+00 0.000000e+00
8.110236e-01 -1.000000e+00 0.000000e+00
8.267717e-01 -1.000000e+00 0.000000e+00
8.425197e-01 -1.000000e+00 0.000000e+00
8.582677e-01 -1.000000e+00 0.000000e+00
8.740157e-01 -1.000000e+00 0.000000e+00
8.897638e-01 -1.000000e+00 0.000000e+00
9.055118e-01 -1.000000e+00 0.000000e+00
9.212598e-01 -1.000000e+00 0.000000e+00
9.370079e-01 -1.000000e+00 0.000000e+00
9.527559e-01 -1.000000e+00 0.000000e+00
9.685039e-01 -1.000000e+00 0.000000e+00
9.842520e-01 -1.000000e+00 0.000000e+00
1.000000e+00 -1.000000e+00 0.000000e+00
-1.000000e+00 -9.842520e-01 0.000000e+00
-9.842520e-01 -9.842520e-01 0.000000e+00
-9.685039e-01 -9.842520e-01 0.000000e+00
-9.527559e-01 -9.842520e-01 0.000000e+00
-9.370079e-01 -9.842520e-01 0.000000e+00
-9.212598e-01 -9.842520e-01 0.000000e+00
-9.055118e-01 -9.842520e-01 0.000000e+00
-8.897638e-01 -9.842520e-01 0.000000e+00
-8.740157e-01 -9.842520e-01 0.000000e+00
-8.582677e-01 -9.842520e-01 0.000000e+00
-8.425197e-01 -9.842520e-01 0.000000e+00
-8.267717e-01 -9.842520e-01 0.000000e+00
-8.110236e-01 -9.842520e-01 0.000000e+00
-7.952756e-01 -9.842520e-01 0.000000e+00
-7.795276e-01 -9.842520e-01 0.000000e+00
-7.637795e-01 -9.842520e-01 0.000000e+00
-7.480315e-01 -9.842520e-01 0.000000e+00
-7.322835e-01 -9.842520e-01 0.000000e+00
-7.165354e-01 -9.842520e-01 0.000000e+00
-7.007874e-01 -9.842520e-01 0.000000e+00
-6.850394e-01 -9.842520e-01 0.000000e+00
-6.692913e-01 -9.842520e-01 0.000000e+00
-6.535433e-01 -9.842520e-01 0.000000e+00
-6.377953e-01 -9.842520e-01 0.000000e+00
-6.220472e-01 -9.842520e-01 0.000000e+00
-6.062992e-01 -9.842520e-01 0.000000e+00
-5.905512e-01 -9.842520e-01 0.000000e+00
-5.748031e-01 -9.842520e-01 0.000000e+00
-5.590551e-01 -9.842520e-01 0.000000e+00
-5.433071e-01 -9.842520e-01 0.000000e+00
-5.275591e-01 -9.842520e-01 0.000000e+00
-5.118110e-01 -9.842520e-01 0.000000e+00
-4.960630e-01 -9.842520e-01 0.000000e+00
-4.803150e-01 -9.842520e-01 0.000000e+00
-4.645669e-01 -9.842520e-01 0.000000e+00
-4.488189e-01 -9.842520e-01 0.000000e+00
-4.330709e-01 -9.842520e-01 0.000000e+00
-4.173228e-01 -9.842520e-01 0.000000e+00
-4.015748e-01 -9.842520e-01 0.000000e+00
-3.858268e-01 -9.842520e-01 0.000000e+00
-3.700787e-01 -9.842520e-01 0.000000e+00
-3.543307e-01 -9.842520e-01 0.000000e+00
-3.385827e-01 -9.842520e-01 0.000000e+00
-3.228346e-01 -9.842520e-01 0.000000e+00
-3.070866e-01 -9.842520e-01 0.000000e+00
-2.913386e-01 -9.842520e-01 0.000000e+00
-2.755906e-01 -9.842520e-01 0.000000e+00
-2.598425e-01 -9.842520e-01 0.000000e+00
-2.440945e-01 -9.842520e-01 0.000000e+00
-2.283465e-01 -9.842520e-01 0.000000e+00
-2.125984e-01 -9.842520e-01 0.000000e+00
-1.968504e-01 -9.842520e-01 0.000000e+00
-1.811024e-01 -9.842520e-01 0.000000e+00
-1.653543e-01 -9.842520e-01 0.000000e+00
-1.496063e-01 -9.842520e-01 0.000000e+00
-1.338583e-01 -9.842520e-01 0.000000e+00
-1.181102e-01 -9.842520e-01 0.000000e+00
-1.023622e-01 -9.842520e-01 0.000000e+00
-8.661417e-02 -9.842520e-01 0.000000e+00
-7.086614e-02 -9.842520e-01 0.000000e+00
-5.511811e-02 -9.842520e-01 0.000000e+00
-3.937008e-02 -9.842520e-01 0.000000e+00
-2.362205e-02 -9.842520e-01 0.000000e+00
-7.874016e-03 -9.842520e-01 0.000000e+00
7.874016e-03 -9.842520e-01 0.000000e+00
2.362205e-02 -9.842520e-01 0.000000e+00
3.937008e-02 -9.842520e-01 0.000000e+00
5.511811e-02 -9.842520e-01 0.000000e+00
7.086614e-02 -9.842520e-01 0.000000e+00
8.661417e-02 -9.842520e-01 0.000000e+00
1.023622e-01 -9.842520e-01 0.000000e+00
1.181102e-01 -9.842520e-01 0.000000e+00
1.338583e-01 -9.842520e-01 0.000000e+00
1.496063e-01 -9.842520e-01 0.000000e+00
1.653543e-01 -9.842520e-01 0.000000e+00
1.811024e-01 -9.842520e-01 0.000000e+00
1.968504e-01 -9.842520e-01 0.000000e+00
2.125984e-01 -9.842520e-01 0.000000e+00
2.283465e-01 -9.842520e-01 0.000000e+00
2.440945e-01 -9.842520e-01 0.000000e+00
2.598425e-01 -9.842520e-01 0.000000e+00
2.755906e-01 -9.842520e-01 0.000000e+00
2.913386e-01 -9.842520e-01 0.000000e+00
3.070866e-01 -9.842520e-01 0.000000e+00
3.228346e-01 -9.842520e-01 0.000000e+00
3.385827e-01 -9.842520e-01 0.000000e+00
3.543307e-01 -9.842520e-01 0.000000e+00
3.700787e-01 -9.842520e-01 0.000000e+00
3.858268e-01 -9.842520e-01 0.000000e+00
4.015748e-01 -9.842520e-01 0.000000e+00
4.173228e-01 -9.842520e-01 0.000000e+00
4.330709e-01 -9.842520e-01 0.000000e+00
4.488189e-01 -9.842520e-01 0.000000e+00
4.645669e-01 -9.842520e-01 0.000000e+00
4.803150e-01 -9.842520e-01 0.000000e+00
4.960630e-01 -9.842520e-01 0.000000e+00
5.118110e-01 -9.842520e-01 0.000000e+00
5.275591e-01 -9.842520e-01 0.000000e+00
5.433071e-01 -9.842520e-01 0.000000e+00
5.590551e-01 -9.842520e-01 0.000000e+00
5.748031e-01 -9.842520e-01 0.000000e+00
5.905512e-01 -9.842520e-01 0.000000e+00
6.062992e-01 -9.842520e-01 0.000000e+00
6.220472e-01 -9.842520e-01 0.000000e+00
6.377953e-01 -9.842520e-01 0.000000e+00
6.535433e-01 -9.842520e-01 0.000000e+00
6.692913e-01 -9.842520e-01 0.000000e+00
6.850394e-01 -9.842520e-01 0.000000e+00
7.007874e-01 -9.842520e-01 0.000000e+00
7.165354e-01 -9.842520e-01 0.000000e+00
7.322835e-01 -9.842520e-01 0.000000e+00
7.480315e-01 -9.842520e-01 0.000000e+00
7.637795e-01 -9.842520e-01 0.000000e+00
7.795276e-01 -9.842520e-01 0.000000e+00
7.952756e-01 -9.842520e-01 0.000000e+00
8.110236e-01 -9.842520e-01 0.000000e+00
[...]
POINT_DATA 16384 
SCALARS concentration double 1 
LOOKUP_TABLE default 
2.676466e+00 
2.651943e+00 
2.627544e+00 
2.603271e+00 
2.579128e+00 
2.555117e+00 
2.531242e+00 
2.507507e+00 
2.483913e+00 
2.460465e+00 
2.437166e+00 
2.414019e+00 
2.391029e+00 
2.368199e+00 
2.345532e+00 
2.323033e+00 
2.300705e+00 
2.278553e+00 
2.256581e+00 
2.234793e+00 
2.213193e+00 
2.191786e+00 
2.170577e+00 
2.149570e+00 
2.128770e+00 
2.108182e+00 
2.087811e+00 
2.067661e+00 
2.047739e+00 
2.028049e+00 
2.008597e+00 
1.989388e+00 
1.970429e+00 
1.951723e+00 
1.933279e+00 
1.915100e+00 
1.897194e+00 
1.879566e+00 
1.862222e+00 
1.845169e+00 
1.828413e+00 
1.811961e+00 
1.795818e+00 
1.779991e+00 
1.764488e+00 
1.749313e+00 
1.734475e+00 
1.719979e+00 
1.705833e+00 
1.692043e+00 
1.678616e+00 
1.665558e+00 
1.652876e+00 
1.640577e+00 
1.628667e+00 
1.617154e+00 
1.606042e+00 
1.595339e+00 
1.585051e+00 
1.575184e+00 
1.565744e+00 
1.556737e+00 
1.548169e+00 
1.540045e+00 
1.532370e+00 
1.525150e+00 
1.518390e+00 
1.512094e+00 
1.506265e+00 
1.500908e+00 
1.496016e+00 
1.491562e+00 
1.487457e+00 
1.483520e+00 
1.479785e+00 
1.476414e+00 
1.473481e+00 
1.471016e+00 
1.469026e+00 
1.467516e+00 
1.466488e+00 
1.465941e+00 
1.465877e+00 
1.466294e+00 
1.467193e+00 
1.468572e+00 
1.470430e+00 
1.472766e+00 
1.475577e+00 
1.478862e+00 
1.482617e+00 
1.486841e+00 
1.491530e+00 
1.496680e+00 
1.502289e+00 
1.508351e+00 
1.514864e+00 
1.521823e+00 
1.529223e+00 
1.537060e+00 
1.545328e+00 
1.554023e+00 
1.563140e+00 
1.572673e+00 
1.582616e+00 
1.592964e+00 
1.603711e+00 
1.614851e+00 
1.626380e+00 
1.638289e+00 
1.650574e+00 
1.663229e+00 
1.676247e+00 
1.689622e+00 
1.703349e+00 
1.717420e+00 
1.731830e+00 
1.746573e+00 
1.761642e+00 
1.777031e+00 
1.792736e+00 
1.808748e+00 
1.825063e+00 
1.841674e+00 
1.858575e+00 
1.875762e+00 
1.893227e+00 
1.910966e+00 
2.656888e+00 
2.632213e+00 
2.607660e+00 
2.583232e+00 
2.558932e+00 
2.534764e+00 
2.510729e+00 
2.486832e+00 
2.463075e+00 
2.439463e+00 
2.415998e+00 
2.392683e+00 
2.369524e+00 
2.346523e+00 
2.323684e+00 
2.301011e+00 
2.278509e+00 
2.256180e+00 
2.234030e+00 
2.212063e+00 
2.190283e+00 
2.168695e+00 
2.147303e+00 
2.126112e+00 
2.105127e+00 
2.084353e+00 
2.063794e+00 
2.043457e+00 
2.023346e+00 
2.003467e+00 
1.983825e+00 
1.964425e+00 
1.945274e+00 
1.926378e+00 
1.907741e+00 
1.889371e+00 
1.871273e+00 
1.853453e+00 
1.835918e+00 
1.818674e+00 
1.801728e+00 
1.785086e+00 
1.768754e+00 
1.752740e+00 
1.737050e+00 
1.721690e+00 
1.706669e+00 
1.691991e+00 
1.677666e+00 
1.663698e+00 
1.650096e+00 
1.636866e+00 
1.624015e+00 
1.611550e+00 
1.599477e+00 
1.587804e+00 
1.576537e+00 
1.565683e+00 
1.555248e+00 
1.545238e+00 
1.535661e+00 
1.526522e+00 
1.517826e+00 
1.509580e+00 
1.501790e+00 
1.494460e+00 
1.487596e+00 
1.481202e+00 
1.475283e+00 
1.469842e+00 
1.464875e+00 
1.460357e+00 
1.456210e+00 
1.452264e+00 
1.448495e+00 
1.445079e+00 
1.442104e+00 
1.439601e+00 
1.437581e+00 
1.436048e+00 
1.435004e+00 
1.434449e+00 
1.434384e+00 
1.434809e+00 
1.435722e+00 
1.437122e+00 
1.439009e+00 
1.441382e+00 
1.444236e+00 
1.447572e+00 
1.451385e+00 
1.455673e+00 
1.460433e+00 
1.465662e+00 
1.471355e+00 
1.477508e+00 
1.484118e+00 
1.491179e+00 
1.498688e+00 
1.506639e+00 
1.515026e+00 
1.523846e+00 
1.533092e+00 
1.542758e+00 
1.552840e+00 
1.563330e+00 
1.574224e+00 
1.585515e+00 
1.597198e+00 
1.609265e+00 
1.621711e+00 
1.634529e+00 
1.647714e+00 
1.661258e+00 
1.675156e+00 
1.689401e+00 
1.703986e+00 
1.718906e+00 
1.734154e+00 
1.749724e+00 
1.765610e+00 
1.781805e+00 
1.798303e+00 
1.815099e+00 
1.832186e+00 
1.849558e+00 
1.867209e+00 
1.885134e+00 
2.637501e+00 
2.612674e+00 
2.587967e+00 
2.563384e+00 
2.538927e+00 
2.514599e+00 
2.490404e+00 
2.466345e+00 
2.442425e+00 
2.418647e+00 
2.395015e+00 
2.371533e+00 
2.348203e+00 
2.325030e+00 
2.302018e+00 
2.279171e+00 
2.256492e+00 
2.233986e+00 
2.211656e+00 
2.189509e+00 
2.167547e+00 
2.145775e+00 
2.124198e+00 
2.102822e+00 
2.081649e+00 
2.060687e+00 
2.039940e+00 
2.019412e+00 
1.999110e+00 
1.979039e+00 
1.959204e+00 
1.939611e+00 
1.920266e+00 
1.901175e+00 
1.882344e+00 
1.863779e+00 
1.845486e+00 
1.827471e+00 
1.809742e+00 
1.792303e+00 
1.775163e+00 
1.758327e+00 
1.741803e+00 
1.725598e+00 
1.709717e+00 
1.694169e+00 
1.678959e+00 
1.664097e+00 
1.649587e+00 
1.635438e+00 
1.621657e+00 
1.608250e+00 
1.595225e+00 
1.582589e+00 
1.570350e+00 
1.558513e+00 
1.547086e+00 
1.536076e+00 
1.525490e+00 
1.515334e+00 
1.505614e+00 
1.496338e+00 
1.487511e+00 
1.479140e+00 
1.471230e+00 
1.463786e+00 
1.456815e+00 
1.450320e+00 
1.444308e+00 
1.438780e+00 
1.433734e+00 
1.429150e+00 
1.424958e+00 
1.420997e+00 
1.417188e+00 
1.413725e+00 
1.410703e+00 
1.408159e+00 
1.406105e+00 
1.404546e+00 
1.403483e+00 
1.402917e+00 
1.402849e+00 
1.403278e+00 
1.404202e+00 
1.405623e+00 
1.407537e+00 
1.409944e+00 
1.412842e+00 
1.416227e+00 
1.420097e+00 
1.424450e+00 
1.429282e+00 
1.434588e+00 
1.440366e+00 
1.446612e+00 
1.453320e+00 
1.460486e+00 
1.468105e+00 
1.476172e+00 
1.484682e+00 
1.493629e+00 
1.503008e+00 
1.512813e+00 
1.523037e+00 
1.533675e+00 
1.544720e+00 
1.556167e+00 
1.568009e+00 
1.580239e+00 
1.592851e+00 
1.605839e+00 
1.619196e+00 
1.632915e+00 
1.646990e+00 
1.661414e+00 
1.676181e+00 
1.691284e+00 
1.706718e+00 
1.722474e+00 
1.738547e+00 
1.754930e+00 
1.771618e+00 
1.788604e+00 
1.805881e+00 
1.823444e+00 
1.841287e+00 
1.859403e+00 
2.618310e+00 
2.593330e+00 
2.568469e+00 
2.543730e+00 
2.519115e+00 
2.494629e+00 
2.470273e+00 
2.446051e+00 
2.421966e+00 
2.398022e+00 
2.374222e+00 
2.350570e+00 
2.327069e+00 
2.303724e+00 
2.280537e+00 
2.257514e+00 
2.234657e+00 
2.211972e+00 
2.189462e+00 
2.167132e+00 
2.144986e+00 
2.123030e+00 
2.101266e+00 
2.079702e+00 
2.058341e+00 
2.037188e+00 
2.016249e+00 
1.995529e+00 
1.975033e+00 
1.954767e+00 
1.934737e+00 
1.914948e+00 
1.895406e+00 
1.876118e+00 
1.857089e+00 
1.838325e+00 
1.819833e+00 
1.801620e+00 
1.783692e+00 
1.766055e+00 
1.748717e+00 
1.731684e+00 
1.714963e+00 
1.698561e+00 
1.682485e+00 
1.666743e+00 
1.651341e+00 
1.636288e+00 
1.621589e+00 
1.607253e+00 
1.593287e+00 
1.579699e+00 
1.566495e+00 
1.553683e+00 
1.541270e+00 
1.529264e+00 
1.517672e+00 
1.506500e+00 
1.495757e+00 
1.485448e+00 
1.475582e+00 
1.466163e+00 
1.457200e+00 
1.448697e+00 
1.440662e+00 
1.433099e+00 
1.426016e+00 
1.419416e+00 
1.413305e+00 
1.407687e+00 
1.402559e+00 
1.397904e+00 
1.393659e+00 
1.389663e+00 
1.385802e+00 
1.382281e+00 
1.379205e+00 
1.376612e+00 
1.374517e+00 
1.372923e+00 
1.371834e+00 
1.371250e+00 
1.371171e+00 
1.371596e+00 
1.372527e+00 
1.373961e+00 
1.375897e+00 
1.378333e+00 
1.381268e+00 
1.384698e+00 
1.388622e+00 
1.393036e+00 
1.397936e+00 
1.403319e+00 
1.409181e+00 
1.415517e+00 
1.422323e+00 
1.429594e+00 
1.437325e+00 
1.445510e+00 
1.454145e+00 
1.463222e+00 
1.472737e+00 
1.482684e+00 
1.493055e+00 
1.503846e+00 
1.515048e+00 
1.526657e+00 
1.538665e+00 
1.551065e+00 
1.563851e+00 
1.577016e+00 
1.590554e+00 
1.604456e+00 
1.618717e+00 
1.633330e+00 
1.648288e+00 
1.663584e+00 
1.679212e+00 
1.695164e+00 
1.711434e+00 
1.728016e+00 
1.744903e+00 
1.762088e+00 
1.779565e+00 
1.797329e+00 
1.815371e+00 
1.833688e+00 
2.599317e+00 
2.574184e+00 
2.549169e+00 
2.524273e+00 
2.499500e+00 
2.474853e+00 
2.450336e+00 
2.425950e+00 
2.401700e+00 
2.377589e+00 
2.353621e+00 
2.329798e+00 
2.306125e+00 
2.282605e+00 
2.259243e+00 
2.236042e+00 
2.213006e+00 
2.190140e+00 
2.167448e+00 
2.144934e+00 
2.122602e+00 
2.100458e+00 
2.078506e+00 
2.056751e+00 
2.035198e+00 
2.013852e+00 
1.992719e+00 
1.971803e+00 
1.951110e+00 
1.930646e+00 
1.910417e+00 
1.890428e+00 
1.870685e+00 
1.851195e+00 
1.831963e+00 
1.812997e+00 
1.794302e+00 
1.775885e+00 
1.757752e+00 
1.739912e+00 
1.722370e+00 
1.705133e+00 
1.688209e+00 
1.671604e+00 
1.655327e+00 
1.639384e+00 
1.623783e+00 
1.608531e+00 
1.593636e+00 
1.579105e+00 
1.564947e+00 
1.551168e+00 
1.537777e+00 
1.524780e+00 
1.512186e+00 
1.500002e+00 
1.488236e+00 
1.476895e+00 
1.465986e+00 
1.455517e+00 
1.445494e+00 
1.435925e+00 
1.426817e+00 
1.418175e+00 
1.410007e+00 
1.402319e+00 
1.395116e+00 
1.388404e+00 
1.382189e+00 
1.376473e+00 
1.371256e+00 
1.366523e+00 
1.362209e+00 
1.358141e+00 
1.354206e+00 
1.350612e+00 
1.347468e+00 
1.344813e+00 
1.342663e+00 
1.341022e+00 
1.339894e+00 
1.339278e+00 
1.339177e+00 
1.339589e+00 
1.340514e+00 
1.341951e+00 
1.343899e+00 
1.346356e+00 
1.349320e+00 
1.352789e+00 
1.356759e+00 
1.361228e+00 
1.366191e+00 
1.371646e+00 
1.377588e+00 
1.384012e+00 
1.390914e+00 
1.398288e+00 
1.406130e+00 
1.414433e+00 
1.423193e+00 
1.432403e+00 
1.442057e+00 
1.452148e+00 
1.462671e+00 
1.473618e+00 
1.484983e+00 
1.496759e+00 
1.508940e+00 
1.521517e+00 
1.534485e+00 
1.547836e+00 
1.561563e+00 
1.575658e+00 
1.590116e+00 
1.604928e+00 
1.620088e+00 
1.635588e+00 
1.651422e+00 
1.667582e+00 
1.684062e+00 
1.700855e+00 
1.717953e+00 
1.735352e+00 
1.753042e+00 
1.771019e+00 
1.789276e+00 
1.807807e+00 
2.580521e+00 
2.555235e+00 
2.530064e+00 
2.505011e+00 
2.480079e+00 
2.455271e+00 
2.430590e+00 
2.406040e+00 
2.381624e+00 
2.357344e+00 
2.333205e+00 
2.309210e+00 
2.285363e+00 
2.261667e+00 
2.238127e+00 
2.214746e+00 
2.191528e+00 
2.168479e+00 
2.145601e+00 
2.122899e+00 
2.100379e+00 
2.078044e+00 
2.055899e+00 
2.033950e+00 
2.012201e+00 
1.990657e+00 
1.969324e+00 
1.948208e+00 
1.927313e+00 
1.906645e+00 
1.886211e+00 
1.866015e+00 
1.846065e+00 
1.826366e+00 
1.806925e+00 
1.787748e+00 
1.768842e+00 
1.750213e+00 
1.731868e+00 
1.713815e+00 
1.696059e+00 
1.678609e+00 
1.661472e+00 
1.644655e+00 
1.628166e+00 
1.612011e+00 
1.596200e+00 
1.580739e+00 
1.565636e+00 
1.550900e+00 
1.536537e+00 
1.522557e+00 
1.508966e+00 
1.495773e+00 
1.482986e+00 
1.470613e+00 
1.458661e+00 
1.447138e+00 
1.436052e+00 
1.425410e+00 
1.415221e+00 
1.405491e+00 
1.396227e+00 
1.387436e+00 
1.379126e+00 
1.371302e+00 
1.363971e+00 
1.357139e+00 
1.350811e+00 
1.344990e+00 
1.339676e+00 
1.334851e+00 
1.330444e+00 
1.326266e+00 
1.322236e+00 
1.318555e+00 
1.315328e+00 
1.312598e+00 
1.310380e+00 
1.308680e+00 
1.307501e+00 
1.306844e+00 
1.306710e+00 
1.307099e+00 
1.308010e+00 
1.309443e+00 
1.311395e+00 
1.313867e+00 
1.316854e+00 
1.320355e+00 
1.324367e+00 
1.328886e+00 
1.333909e+00 
1.339433e+00 
1.345451e+00 
1.351961e+00 
1.358956e+00 
1.366432e+00 
1.374383e+00 
1.382804e+00 
1.391688e+00 
1.401029e+00 
1.410822e+00 
1.421058e+00 
1.431733e+00 
1.442838e+00 
1.454366e+00 
1.466312e+00 
1.478667e+00 
1.491424e+00 
1.504577e+00 
1.518117e+00 
1.532037e+00 
1.546331e+00 
1.560990e+00 
1.576007e+00 
1.591374e+00 
1.607086e+00 
1.623133e+00 
1.639510e+00 
1.656208e+00 
1.673221e+00 
1.690541e+00 
1.708163e+00 
1.726078e+00 
1.744280e+00 
1.762763e+00 
1.781520e+00 
2.561907e+00 
2.536465e+00 
2.511137e+00 
2.485924e+00 
2.460831e+00 
2.435860e+00 
2.411014e+00 
2.386296e+00 
2.361710e+00 
2.337259e+00 
2.312946e+00 
2.288775e+00 
2.264749e+00 
2.240874e+00 
2.217151e+00 
2.193585e+00 
2.170181e+00 
2.146943e+00 
2.123874e+00 
2.100979e+00 
2.078263e+00 
2.055731e+00 
2.033387e+00 
2.011236e+00 
1.989284e+00 
1.967535e+00 
1.945995e+00 
1.924669e+00 
1.903562e+00 
1.882682e+00 
1.862033e+00 
1.841621e+00 
1.821453e+00 
1.801535e+00 
1.781873e+00 
1.762474e+00 
1.743345e+00 
1.724492e+00 
1.705923e+00 
1.687644e+00 
1.669663e+00 
1.651988e+00 
1.634624e+00 
1.617582e+00 
1.600867e+00 
1.584488e+00 
1.568452e+00 
1.552769e+00 
1.537445e+00 
1.522489e+00 
1.507909e+00 
1.493714e+00 
1.479911e+00 
1.466509e+00 
1.453517e+00 
1.440941e+00 
1.428792e+00 
1.417076e+00 
1.405802e+00 
1.394978e+00 
1.384611e+00 
1.374710e+00 
1.365281e+00 
1.356333e+00 
1.347872e+00 
1.339904e+00 
1.332438e+00 
1.325478e+00 
1.319031e+00 
1.313099e+00 
1.307679e+00 
1.302750e+00 
1.298234e+00 
1.293942e+00 
1.289814e+00 
1.286044e+00 
1.282733e+00 
1.279925e+00 
1.277636e+00 
1.275876e+00 
1.274645e+00 
1.273947e+00 
1.273781e+00 
1.274148e+00 
1.275047e+00 
1.276477e+00 
1.278436e+00 
1.280924e+00 
1.283937e+00 
1.287474e+00 
1.291530e+00 
1.296103e+00 
1.301188e+00 
1.306782e+00 
1.312879e+00 
1.319475e+00 
1.326565e+00 
1.334144e+00 
1.342204e+00 
1.350742e+00 
1.359749e+00 
1.369221e+00 
1.379149e+00 
1.389529e+00 
1.400351e+00 
1.411611e+00 
1.423299e+00 
1.435410e+00 
1.447935e+00 
1.460867e+00 
1.474198e+00 
1.487922e+00 
1.502031e+00 
1.516516e+00 
1.531371e+00 
1.546587e+00 
1.562158e+00 
1.578075e+00 
1.594331e+00 
1.610919e+00 
1.627832e+00 
1.645062e+00 
1.662601e+00 
1.680443e+00 
1.698581e+00 
1.717008e+00 
1.735717e+00 
1.754700e+00 
2.543421e+00 
2.517819e+00 
2.492329e+00 
2.466953e+00 
2.441694e+00 
2.416554e+00 
2.391537e+00 
2.366646e+00 
2.341884e+00 
2.317255e+00 
2.292762e+00 
2.268408e+00 
2.244198e+00 
2.220134e+00 
2.196221e+00 
2.172463e+00 
2.148864e+00 
2.125428e+00 
2.102159e+00 
2.079063e+00 
2.056142e+00 
2.033403e+00 
2.010849e+00 
1.988487e+00 
1.966320e+00 
1.944355e+00 
1.922596e+00 
1.901049e+00 
1.879720e+00 
1.858615e+00 
1.837740e+00 
1.817100e+00 
1.796702e+00 
1.776553e+00 
1.756658e+00 
1.737025e+00 
1.717661e+00 
1.698572e+00 
1.679766e+00 
1.661251e+00 
1.643032e+00 
1.625119e+00 
1.607519e+00 
1.590239e+00 
1.573288e+00 
1.556674e+00 
1.540405e+00 
1.524490e+00 
1.508936e+00 
1.493752e+00 
1.478947e+00 
1.464529e+00 
1.450507e+00 
1.436889e+00 
1.423685e+00 
1.410902e+00 
1.398550e+00 
1.386636e+00 
1.375170e+00 
1.364159e+00 
1.353611e+00 
1.343536e+00 
1.333940e+00 
1.324831e+00 
1.316217e+00 
1.308105e+00 
1.300501e+00 
1.293413e+00 
1.286845e+00 
1.280799e+00 
1.275272e+00 
1.270239e+00 
1.265624e+00 
1.261260e+00 
1.257068e+00 
1.253230e+00 
1.249850e+00 
1.246977e+00 
1.244632e+00 
1.242823e+00 
1.241554e+00 
1.240828e+00 
1.240643e+00 
1.241002e+00 
1.241902e+00 
1.243342e+00 
1.245322e+00 
1.247839e+00 
1.250891e+00 
1.254474e+00 
1.258585e+00 
1.263222e+00 
1.268378e+00 
1.274051e+00 
1.280235e+00 
1.286924e+00 
1.294115e+00 
1.301800e+00 
1.309973e+00 
1.318630e+00 
1.327762e+00 
1.337363e+00 
1.347427e+00 
1.357947e+00 
1.368914e+00 
1.380323e+00 
1.392165e+00 
1.404433e+00 
1.417120e+00 
1.430218e+00 
1.443719e+00 
1.457615e+00 
1.471899e+00 
1.486563e+00 
1.501600e+00 
1.517001e+00 
1.532759e+00 
1.548867e+00 
1.565316e+00 
1.582099e+00 
1.599209e+00 
1.616638e+00 
1.634379e+00 
1.652425e+00 
1.670769e+00 
1.689403e+00 
1.708320e+00 
1.727514e+00 
2.524943e+00 
2.499175e+00 
2.473516e+00 
2.447968e+00 
2.422535e+00 
2.397218e+00 
2.372022e+00 
2.346950e+00 
2.322004e+00 
2.297188e+00 
2.272506e+00 
2.247961e+00 
2.223556e+00 
2.199296e+00 
2.175183e+00 
2.151224e+00 
2.127420e+00 
2.103777e+00 
2.080299e+00 
2.056990e+00 
2.033856e+00 
2.010900e+00 
1.988128e+00 
1.965544e+00 
1.943154e+00 
1.920964e+00 
1.898978e+00 
1.877202e+00 
1.855643e+00 
1.834305e+00 
1.813196e+00 
1.792321e+00 
1.771687e+00 
1.751300e+00 
1.731167e+00 
1.711295e+00 
1.691691e+00 
1.672362e+00 
1.653317e+00 
1.634561e+00 
1.616103e+00 
1.597951e+00 
1.580112e+00 
1.562596e+00 
1.545409e+00 
1.528561e+00 
1.512059e+00 
1.495914e+00 
1.480132e+00 
1.464723e+00 
1.449696e+00 
1.435059e+00 
1.420823e+00 
1.406994e+00 
1.393583e+00 
1.380598e+00 
1.368048e+00 
1.355942e+00 
1.344289e+00 
1.333097e+00 
1.322375e+00 
1.312131e+00 
1.302374e+00 
1.293110e+00 
1.284349e+00 
1.276097e+00 
1.268361e+00 
1.261149e+00 
1.254464e+00 
1.248310e+00 
1.242681e+00 
1.237558e+00 
1.232875e+00 
1.228507e+00 
1.224309e+00 
1.220438e+00 
1.217013e+00 
1.214096e+00 
1.211714e+00 
1.209877e+00 
1.208589e+00 
1.207853e+00 
1.207669e+00 
1.208037e+00 
1.208956e+00 
1.210424e+00 
1.212440e+00 
1.215002e+00 
1.218106e+00 
1.221751e+00 
1.225931e+00 
1.230643e+00 
1.235883e+00 
1.241646e+00 
1.247927e+00 
1.254719e+00 
1.262018e+00 
1.269818e+00 
1.278111e+00 
1.286892e+00 
1.296154e+00 
1.305889e+00 
1.316091e+00 
1.326753e+00 
1.337866e+00 
1.349424e+00 
1.361418e+00 
1.373841e+00 
1.386685e+00 
1.399943e+00 
1.413607e+00 
1.427668e+00 
1.442119e+00 
1.456951e+00 
1.472158e+00 
1.487731e+00 
1.503663e+00 
1.519945e+00 
1.536571e+00 
1.553532e+00 
1.570820e+00 
1.588430e+00 
1.606352e+00 
1.624580e+00 
1.643106e+00 
1.661924e+00 
1.681027e+00 
1.700407e+00 
2.506297e+00 
2.480355e+00 
2.454520e+00 
2.428795e+00 
2.403181e+00 
2.377682e+00 
2.352301e+00 
2.327041e+00 
2.301905e+00 
2.276897e+00 
2.252020e+00 
2.227278e+00 
2.202675e+00 
2.178213e+00 
2.153898e+00 
2.129732e+00 
2.105721e+00 
2.081869e+00 
2.058179e+00 
2.034657e+00 
2.011307e+00 
1.988134e+00 
1.965143e+00 
1.942339e+00 
1.919727e+00 
1.897313e+00 
1.875102e+00 
1.853101e+00 
1.831315e+00 
1.809749e+00 
1.788411e+00 
1.767306e+00 
1.746442e+00 
1.725825e+00 
1.705461e+00 
1.685359e+00 
1.665524e+00 
1.645965e+00 
1.626689e+00 
1.607704e+00 
1.589018e+00 
1.570638e+00 
1.552573e+00 
1.534832e+00 
1.517422e+00 
1.500352e+00 
1.483632e+00 
1.467269e+00 
1.451273e+00 
1.435652e+00 
1.420416e+00 
1.405574e+00 
1.391135e+00 
1.377108e+00 
1.363502e+00 
1.350327e+00 
1.337592e+00 
1.325305e+00 
1.313476e+00 
1.302113e+00 
1.291226e+00 
1.280823e+00 
1.270913e+00 
1.261503e+00 
1.252602e+00 
1.244217e+00 
1.236356e+00 
1.229025e+00 
1.222230e+00 
1.215974e+00 
1.210254e+00 
1.205056e+00 
1.200334e+00 
1.195991e+00 
1.191848e+00 
1.187975e+00 
1.184524e+00 
1.181578e+00 
1.179173e+00 
1.177322e+00 
1.176028e+00 
1.175296e+00 
1.175124e+00 
1.175513e+00 
1.176461e+00 
1.177968e+00 
1.180031e+00 
1.182648e+00 
1.185816e+00 
1.189531e+00 
1.193790e+00 
1.198588e+00 
1.203920e+00 
1.209782e+00 
1.216169e+00 
1.223073e+00 
1.230490e+00 
1.238412e+00 
1.246834e+00 
1.255748e+00 
1.265147e+00 
1.275024e+00 
1.285372e+00 
1.296182e+00 
1.307448e+00 
1.319161e+00 
1.331313e+00 
1.343896e+00 
1.356903e+00 
1.370325e+00 
1.384155e+00 
1.398383e+00 
1.413002e+00 
1.428004e+00 
1.443381e+00 
1.459125e+00 
1.475228e+00 
1.491681e+00 
1.508478e+00 
1.525611e+00 
1.543071e+00 
1.560852e+00 
1.578946e+00 
1.597345e+00 
1.616043e+00 
1.635031e+00 
1.654304e+00 
1.673854e+00 
2.487366e+00 
2.461253e+00 
2.435244e+00 
2.409342e+00 
2.383550e+00 
2.357872e+00 
2.332309e+00 
2.306866e+00 
2.281546e+00 
2.256351e+00 
2.231286e+00 
2.206354e+00 
2.181559e+00 
2.156904e+00 
2.132394e+00 
2.108032e+00 
2.083823e+00 
2.059771e+00 
2.035881e+00 
2.012157e+00 
1.988604e+00 
1.965226e+00 
1.942030e+00 
1.919019e+00 
1.896200e+00 
1.873577e+00 
1.851158e+00 
1.828946e+00 
1.806949e+00 
1.785172e+00 
1.763622e+00 
1.742305e+00 
1.721228e+00 
1.700398e+00 
1.679821e+00 
1.659505e+00 
1.639458e+00 
1.619686e+00 
1.600198e+00 
1.581001e+00 
1.562104e+00 
1.543513e+00 
1.525239e+00 
1.507288e+00 
1.489671e+00 
1.472395e+00 
1.455470e+00 
1.438904e+00 
1.422706e+00 
1.406887e+00 
1.391454e+00 
1.376417e+00 
1.361786e+00 
1.347571e+00 
1.333780e+00 
1.320423e+00 
1.307509e+00 
1.295048e+00 
1.283049e+00 
1.271521e+00 
1.260474e+00 
1.249916e+00 
1.239855e+00 
1.230302e+00 
1.221263e+00 
1.212747e+00 
1.204762e+00 
1.197314e+00 
1.190410e+00 
1.184054e+00 
1.178247e+00 
1.172981e+00 
1.168226e+00 
1.163901e+00 
1.159833e+00 
1.155964e+00 
1.152490e+00 
1.149518e+00 
1.147092e+00 
1.145228e+00 
1.143930e+00 
1.143202e+00 
1.143045e+00 
1.143456e+00 
1.144437e+00 
1.145984e+00 
1.148097e+00 
1.150771e+00 
1.154005e+00 
1.157795e+00 
1.162136e+00 
1.167024e+00 
1.172455e+00 
1.178422e+00 
1.184920e+00 
1.191943e+00 
1.199484e+00 
1.207537e+00 
1.216095e+00 
1.225151e+00 
1.234697e+00 
1.244725e+00 
1.255228e+00 
1.266198e+00 
1.277627e+00 
1.289506e+00 
1.301828e+00 
1.314583e+00 
1.327764e+00 
1.341362e+00 
1.355369e+00 
1.369776e+00 
1.384575e+00 
1.399758e+00 
1.415317e+00 
1.431242e+00 
1.447526e+00 
1.464161e+00 
1.481139e+00 
1.498452e+00 
1.516092e+00 
1.534052e+00 
1.552323e+00 
1.570899e+00 
1.589772e+00 
1.608935e+00 
1.628380e+00 
1.648102e+00 
2.468270e+00 
2.441998e+00 
2.415829e+00 
2.389766e+00 
2.363812e+00 
2.337969e+00 
2.312241e+00 
2.286631e+00 
2.261142e+00 
2.235778e+00 
2.210542e+00 
2.185438e+00 
2.160469e+00 
2.135639e+00 
2.110952e+00 