# vtk DataFile Version 2.0 
Quadtree Mesh 
ASCII 
DATASET UNSTRUCTURED_GRID 
POINTS 16384 double 
-1.000000e+00 -1.000000e+00 0.000000e+00
-9.842520e-01 -1.000000e+00 0.000000e+00
-9.685039e-01 -1.000000e+00 0.000000e+00
-9.527559e-01 -1.000000e+00 0.000000e+00
-9.370079e-01 -1.000000e+00 0.000000e+00
-9.212598e-01 -1.000000e+00 0.000000e+00
-9.055118e-01 -1.000000e+00 0.000000e+00
-8.897638e-01 -1.000000e+00 0.000000e+00
-8.740157e-01 -1.000000e+00 0.000000e+00
-8.582677e-01 -1.000000e+00 0.000000e+00
-8.425197e-01 -1.000000e+00 0.000000e+00
-8.267717e-01 -1.000000e+00 0.000000e+00
-8.110236e-01 -1.000000e+00 0.000000e+00
-7.952756e-01 -1.000000e+00 0.000000e+00
-7.795276e-01 -1.000000e+00 0.000000e+00
-7.637795e-01 -1.000000e+00 0.000000e+00
-7.480315e-01 -1.000000e+00 0.000000e+00
-7.322835e-01 -1.000000e+00 0.000000e+00
-7.165354e-01 -1.000000e+00 0.000000e+00
-7.007874e-01 -1.000000e+00 0.000000e+00
-6.850394e-01 -1.000000e+00 0.000000e+00
-6.692913e-01 -1.000000e+00 0.000000e+00
-6.535433e-01 -1.000000e+00 0.000000e+00
-6.377953e-01 -1.000000e+00 0.000000e+00
-6.220472e-01 -1.000000e+00 0.000000e+00
-6.062992e-01 -1.000000e+00 0.000000e+00
-5.905512e-01 -1.000000e+00 0.000000e+00
-5.748031e-01 -1.000000e+00 0.000000e+00
-5.590551e-01 -1.000000e+00 0.000000e+00
-5.433071e-01 -1.000000e+00 0.000000e+00
-5.275591e-01 -1.000000e+00 0.000000e+00
-5.118110e-01 -1.000000e+00 0.000000e+00
-4.960630e-01 -1.000000e+00 0.000000e+00
-4.803150e-01 -1.000000e+00 0.000000e+00
-4.645669e-01 -1.000000e+00 0.000000e+00
-4.488189e-01 -1.000000e+00 0.000000e+00
-4.330709e-01 -1.000000e+00 0.000000e+00
-4.173228e-01 -1.000000e+00 0.000000e+00
-4.015748e-01 -1.000000e+00 0.000000e+00
-3.858268e-01 -1.000000e+00 0.000000e+00
-3.700787e-01 -1.000000e+00 0.000000e+00
-3.543307e-01 -1.000000e+00 0.000000e+00
-3.385827e-01 -1.000000e+00 0.000000e+00
-3.228346e-01 -1.000000e+00 0.000000e+00
-3.070866e-01 -1.000000e+00 0.000000e+00
-2.913386e-01 -1.000000e+00 0.000000e+00
-2.755906e-01 -1.000000e+00 0.000000e+00
-2.598425e-01 -1.000000e+00 0.000000e+00
-2.440945e-01 -1.000000e+00 0.000000e+00
-2.283465e-01 -1.000000e+00 0.000000e+00
-2.125984e-01 -1.000000e+00 0.000000e+00
-1.968504e-01 -1.000000e+00 0.000000e+00
-1.811024e-01 -1.000000e+00 0.000000e+00
-1.653543e-01 -1.000000e+00 0.000000e+00
-1.496063e-01 -1.000000e+00 0.000000e+00
-1.338583e-01 -1.000000e+00 0.000000e+00
-1.181102e-01 -1.000000e+00 0.000000e+00
-1.023622e-01 -1.000000e+00 0.000000e+00
-8.661417e-02 -1.000000e+00 0.000000e+00
-7.086614e-02 -1.000000e+00 0.000000e+00
-5.511811e-02 -1.000000e+00 0.000000e+00
-3.937008e-02 -1.000000e+00 0.000000e+00
-2.362205e-02 -1.000000e+00 0.000000e+00
-7.874016e-03 -1.000000e+00 0.000000e+00
7.874016e-03 -1.000000e+00 0.000000e+00
2.362205e-02 -1.000000e+00 0.000000e+00
3.937008e-02 -1.000000e+00 0.000000e+00
5.511811e-02 -1.000000e+00 0.000000e+00
7.086614e-02 -1.000000e+00 0.000000e+00
8.661417e-02 -1.000000e+00 0.000000e+00
1.023622e-01 -1.000000e+00 0.000000e+00
1.181102e-01 -1.000000e+00 0.000000e+00
1.338583e-01 -1.000000e+00 0.000000e+00
1.496063e-01 -1.000000e+00 0.000000e+00
1.653543e-01 -1.000000e+00 0.000000e+00
1.811024e-01 -1.000000e+00 0.000000e+00
1.968504e-01 -1.000000e+00 0.000000e+00
2.125984e-01 -1.000000e+00 0.000000e+00
2.283465e-01 -1.000000e+00 0.000000e+00
2.440945e-01 -1.000000e+00 0.000000e+00
2.598425e-01 -1.000000e+00 0.000000e+00
2.755906e-01 -1.000000e+00 0.000000e+00
2.913386e-01 -1.000000e+00 0.000000e+00
3.070866e-01 -1.000000e+00 0.000000e+00
3.228346e-01 -1.000000e+00 0.000000e+00
3.385827e-01 -1.000000e+00 0.000000e+00
3.543307e-01 -1.000000e+00 0.000000e+00
3.700787e-01 -1.000000e+00 0.000000e+00
3.858268e-01 -1.000000e+00 0.000000e+00
4.015748e-01 -1.000000e+00 0.000000e+00
4.173228e-01 -1.000000e+00 0.000000e+00
4.330709e-01 -1.000000e+00 0.000000e+00
4.488189e-01 -1.000000e+00 0.000000e+00
4.645669e-01 -1.000000e+00 0.000000e+00
4.803150e-01 -1.000000e+00 0.000000e+00
4.960630e-01 -1.000000e+00 0.000000e+00
5.118110e-01 -1.000000e+00 0.000000e+00
5.275591e-01 -1.000000e+00 0.000000e+00
5.433071e-01 -1.000000e+00 0.000000e+00
5.590551e-01 -1.000000e+00 0.000000e+00
5.748031e-01 -1.000000e+00 0.000000e+00
5.905512e-01 -1.000000e+00 0.000000e+00
6.062992e-01 -1.000000e+00 0.000000e+00
6.220472e-01 -1.000000e+00 0.000000e+00
6.377953e-01 -1.000000e+00 0.000000e+00
6.535433e-01 -1.000000e+00 0.000000e+00
6.692913e-01 -1.000000e+00 0.000000e+00
6.850394e-01 -1.000000e+00 0.000000e+00
7.007874e-01 -1.000000e+00 0.000000e+00
7.165354e-01 -1.000000e+00 0.000000e+00
7.322835e-01 -1.000000e+00 0.000000e+00
7.480315e-01 -1.000000e+00 0.000000e+00
7.637795e-01 -1.000000e+00 0.000000e+00
7.795276e-01 -1.000000e+00 0.000000e+00
7.952756e-01 -1.000000e+00 0.000000e+00
8.110236e-01 -1.000000e+00 0.000000e+00
8.267717e-01 -1.000000e+00 0.000000e+00
8.425197e-01 -1.000000e+00 0.000000e+00
8.582677e-01 -1.000000e+00 0.000000e+00
8.740157e-01 -1.000000e+00 0.000000e+00
8.897638e-01 -1.000000e+00 0.000000e+00
9.055118e-01 -1.000000e+00 0.000000e+00
9.212598e-01 -1.000000e+00 0.000000e+00
9.370079e-01 -1.000000e+00 0.000000e+00
9.527559e-01 -1.000000e+00 0.000000e+00
9.685039e-01 -1.000000e+00 0.000000e+00
9.842520e-01 -1.000000e+00 0.000000e+00
1.000000e+00 -1.000000e+00 0.000000e+00
-1.000000e+00 -9.842520e-01 0.000000e+00
-9.842520e-01 -9.842520e-01 0.000000e+00
-9.685039e-01 -9.842520e-01 0.000000e+00
-9.527559e-01 -9.842520e-01 0.000000e+00
-9.370079e-01 -9.842520e-01 0.000000e+00
-9.212598e-01 -9.842520e-01 0.000000e+00
-9.055118e-01 -9.842520e-01 0.000000e+00
-8.897638e-01 -9.842520e-01 0.000000e+00
-8.740157e-01 -9.842520e-01 0.000000e+00
-8.582677e-01 -9.842520e-01 0.000000e+00
-8.425197e-01 -9.842520e-01 0.000000e+00
-8.267717e-01 -9.842520e-01 0.000000e+00
-8.110236e-01 -9.842520e-01 0.000000e+00
-7.952756e-01 -9.842520e-01 0.000000e+00
-7.795276e-01 -9.842520e-01 0.000000e+00
-7.637795e-01 -9.842520e-01 0.000000e+00
-7.480315e-01 -9.842520e-01 0.000000e+00
-7.322835e-01 -9.842520e-01 0.000000e+00
-7.165354e-01 -9.842520e-01 0.000000e+00
-7.007874e-01 -9.842520e-01 0.000000e+00
-6.850394e-01 -9.842520e-01 0.000000e+00
-6.692913e-01 -9.842520e-01 0.000000e+00
-6.535433e-01 -9.842520e-01 0.000000e+00
-6.377953e-01 -9.842520e-01 0.000000e+00
-6.220472e-01 -9.842520e-01 0.000000e+00
-6.062992e-01 -9.842520e-01 0.000000e+00
-5.905512e-01 -9.842520e-01 0.000000e+00
-5.748031e-01 -9.842520e-01 0.000000e+00
-5.590551e-01 -9.842520e-01 0.000000e+00
-5.433071e-01 -9.842520e-01 0.000000e+00
-5.275591e-01 -9.842520e-01 0.000000e+00
-5.118110e-01 -9.842520e-01 0.000000e+00
-4.960630e-01 -9.842520e-01 0.000000e+00
-4.803150e-01 -9.842520e-01 0.000000e+00
-4.645669e-01 -9.842520e-01 0.000000e+00
-4.488189e-01 -9.842520e-01 0.000000e+00
-4.330709e-01 -9.842520e-01 0.000000e+00
-4.173228e-01 -9.842520e-01 0.000000e+00
-4.015748e-01 -9.842520e-01 0.000000e+00
-3.858268e-01 -9.842520e-01 0.000000e+00
-3.700787e-01 -9.842520e-01 0.000000e+00
-3.543307e-01 -9.842520e-01 0.000000e+00
-3.385827e-01 -9.842520e-01 0.000000e+00
-3.228346e-01 -9.842520e-01 0.000000e+00
-3.070866e-01 -9.842520e-01 0.000000e+00
-2.913386e-01 -9.842520e-01 0.000000e+00
-2.755906e-01 -9.842520e-01 0.000000e+00
-2.598425e-01 -9.842520e-01 0.000000e+00
-2.440945e-01 -9.842520e-01 0.000000e+00
-2.283465e-01 -9.842520e-01 0.000000e+00
-2.125984e-01 -9.842520e-01 0.000000e+00
-1.968504e-01 -9.842520e-01 0.000000e+00
-1.811024e-01 -9.842520e-01 0.000000e+00
-1.653543e-01 -9.842520e-01 0.000000e+00
-1.496063e-01 -9.842520e-01 0.000000e+00
-1.338583e-01 -9.842520e-01 0.000000e+00
-1.181102e-01 -9.842520e-01 0.000000e+00
-1.023622e-01 -9.842520e-01 0.000000e+00
-8.661417e-02 -9.842520e-01 0.000000e+00
-7.086614e-02 -9.842520e-01 0.000000e+00
-5.511811e-02 -9.842520e-01 0.000000e+00
-3.937008e-02 -9.842520e-01 0.000000e+00
-2.362205e-02 -9.842520e-01 0.000000e+00
-7.874016e-03 -9.842520e-01 0.000000e+00
7.874016e-03 -9.842520e-01 0.000000e+00
2.362205e-02 -9.842520e-01 0.000000e+00
3.937008e-02 -9.842520e-01 0.000000e+00
5.511811e-02 -9.842520e-01 0.000000e+00
7.086614e-02 -9.842520e-01 0.000000e+00
8.661417e-02 -9.842520e-01 0.000000e+00
1.023622e-01 -9.842520e-01 0.000000e+00
1.181102e-01 -9.842520e-01 0.000000e+00
1.338583e-01 -9.842520e-01 0.000000e+00
1.496063e-01 -9.842520e-01 0.000000e+00
1.653543e-01 -9.842520e-01 0.000000e+00
1.811024e-01 -9.842520e-01 0.000000e+00
1.968504e-01 -9.842520e-01 0.000000e+00
2.125984e-01 -9.842520e-01 0.000000e+00
2.283465e-01 -9.842520e-01 0.000000e+00
2.440945e-01 -9.842520e-01 0.000000e+00
2.598425e-01 -9.842520e-01 0.000000e+00
2.755906e-01 -9.842520e-01 0.000000e+00
2.913386e-01 -9.842520e-01 0.000000e+00
3.070866e-01 -9.842520e-01 0.000000e+00
3.228346e-01 -9.842520e-01 0.000000e+00
3.385827e-01 -9.842520e-01 0.000000e+00
3.543307e-01 -9.842520e-01 0.000000e+00
3.700787e-01 -9.842520e-01 0.000000e+00
3.858268e-01 -9.842520e-01 0.000000e+00
4.015748e-01 -9.842520e-01 0.000000e+00
4.173228e-01 -9.842520e-01 0.000000e+00
4.330709e-01 -9.842520e-01 0.000000e+00
4.488189e-01 -9.842520e-01 0.000000e+00
4.645669e-01 -9.842520e-01 0.000000e+00
4.803150e-01 -9.842520e-01 0.000000e+00
4.960630e-01 -9.842520e-01 0.000000e+00
5.118110e-01 -9.842520e-01 0.000000e+00
5.275591e-01 -9.842520e-01 0.000000e+00
5.433071e-01 -9.842520e-01 0.000000e+00
5.590551e-01 -9.842520e-01 0.000000e+00
5.748031e-01 -9.842520e-01 0.000000e+00
5.905512e-01 -9.842520e-01 0.000000e+00
6.062992e-01 -9.842520e-01 0.000000e+00
6.220472e-01 -9.842520e-01 0.000000e+00
6.377953e-01 -9.842520e-01 0.000000e+00
6.535433e-01 -9.842520e-01 0.000000e+00
6.692913e-01 -9.842520e-01 0.000000e+00
6.850394e-01 -9.842520e-01 0.000000e+00
7.007874e-01 -9.842520e-01 0.000000e+00
7.165354e-01 -9.842520e-01 0.000000e+00
7.322835e-01 -9.842520e-01 0.000000e+00
7.480315e-01 -9.842520e-01 0.000000e+00
7.637795e-01 -9.842520e-01 0.000000e+00
7.795276e-01 -9.842520e-01 0.000000e+00
7.952756e-01 -9.842520e-01 0.000000e+00
8.110236e-01 -9.842520e-01 0.000000e+00
[...]
POINT_DATA 16384 
SCALARS concentration double 1 
LOOKUP_TABLE default 
2.398625e+00 
2.374018e+00 
2.349536e+00 
2.325181e+00 
2.300958e+00 
2.276869e+00 
2.252918e+00 
2.229109e+00 
2.205443e+00 
2.181927e+00 
2.158562e+00 
2.135352e+00 
2.112302e+00 
2.089415e+00 
2.066695e+00 
2.044146e+00 
2.021773e+00 
1.999578e+00 
1.977567e+00 
1.955745e+00 
1.934114e+00 
1.912680e+00 
1.891447e+00 
1.870420e+00 
1.849603e+00 
1.829001e+00 
1.808620e+00 
1.788463e+00 
1.768537e+00 
1.748845e+00 
1.729393e+00 
1.710187e+00 
1.691231e+00 
1.672531e+00 
1.654093e+00 
1.635921e+00 
1.618023e+00 
1.600402e+00 
1.583066e+00 
1.566019e+00 
1.549268e+00 
1.532820e+00 
1.516678e+00 
1.500851e+00 
1.485344e+00 
1.470164e+00 
1.455316e+00 
1.440807e+00 
1.426643e+00 
1.412831e+00 
1.399377e+00 
1.386288e+00 
1.373569e+00 
1.361228e+00 
1.349271e+00 
1.337705e+00 
1.326535e+00 
1.315768e+00 
1.305411e+00 
1.295469e+00 
1.285949e+00 
1.276856e+00 
1.268198e+00 
1.259979e+00 
1.252204e+00 
1.244878e+00 
1.238005e+00 
1.231587e+00 
1.225619e+00 
1.220092e+00 
1.214986e+00 
1.210260e+00 
1.205855e+00 
1.201682e+00 
1.197643e+00 
1.193642e+00 
1.189660e+00 
1.185764e+00 
1.182042e+00 
1.178581e+00 
1.175452e+00 
1.172702e+00 
1.170361e+00 
1.168448e+00 
1.166973e+00 
1.165944e+00 
1.165363e+00 
1.165234e+00 
1.165556e+00 
1.166331e+00 
1.167556e+00 
1.169233e+00 
1.171358e+00 
1.173931e+00 
1.176950e+00 
1.180413e+00 
1.184317e+00 
1.188660e+00 
1.193439e+00 
1.198650e+00 
1.204291e+00 
1.210358e+00 
1.216847e+00 
1.223755e+00 
1.231077e+00 
1.238809e+00 
1.246946e+00 
1.255485e+00 
1.264421e+00 
1.273748e+00 
1.283463e+00 
1.293559e+00 
1.304032e+00 
1.314877e+00 
1.326088e+00 
1.337661e+00 
1.349589e+00 
1.361868e+00 
1.374491e+00 
1.387454e+00 
1.400751e+00 
1.414376e+00 
1.428323e+00 
1.442587e+00 
1.457163e+00 
1.472045e+00 
1.487226e+00 
1.502702e+00 
2.378309e+00 
2.353569e+00 
2.328954e+00 
2.304467e+00 
2.280110e+00 
2.255887e+00 
2.231802e+00 
2.207858e+00 
2.184057e+00 
2.160404e+00 
2.136902e+00 
2.113555e+00 
2.090366e+00 
2.067339e+00 
2.044479e+00 
2.021788e+00 
1.999271e+00 
1.976933e+00 
1.954776e+00 
1.932806e+00 
1.911026e+00 
1.889442e+00 
1.868057e+00 
1.846876e+00 
1.825904e+00 
1.805145e+00 
1.784604e+00 
1.764286e+00 
1.744197e+00 
1.724340e+00 
1.704722e+00 
1.685347e+00 
1.666221e+00 
1.647349e+00 
1.628737e+00 
1.610391e+00 
1.592315e+00 
1.574516e+00 
1.557000e+00 
1.539773e+00 
1.522840e+00 
1.506208e+00 
1.489884e+00 
1.473872e+00 
1.458180e+00 
1.442814e+00 
1.427781e+00 
1.413087e+00 
1.398738e+00 
1.384742e+00 
1.371105e+00 
1.357833e+00 
1.344934e+00 
1.332414e+00 
1.320279e+00 
1.308538e+00 
1.297196e+00 
1.286260e+00 
1.275737e+00 
1.265633e+00 
1.255956e+00 
1.246711e+00 
1.237904e+00 
1.229543e+00 
1.221632e+00 
1.214176e+00 
1.207179e+00 
1.200644e+00 
1.194568e+00 
1.188941e+00 
1.183743e+00 
1.178936e+00 
1.174459e+00 
1.170220e+00 
1.166110e+00 
1.162032e+00 
1.157979e+00 
1.154014e+00 
1.150220e+00 
1.146685e+00 
1.143480e+00 
1.140655e+00 
1.138242e+00 
1.136263e+00 
1.134729e+00 
1.133648e+00 
1.133023e+00 
1.132858e+00 
1.133152e+00 
1.133907e+00 
1.135121e+00 
1.136795e+00 
1.138926e+00 
1.141512e+00 
1.144551e+00 
1.148041e+00 
1.151979e+00 
1.156364e+00 
1.161192e+00 
1.166460e+00 
1.172166e+00 
1.178303e+00 
1.184870e+00 
1.191862e+00 
1.199274e+00 
1.207102e+00 
1.215342e+00 
1.223988e+00 
1.233037e+00 
1.242483e+00 
1.252321e+00 
1.262546e+00 
1.273153e+00 
1.284137e+00 
1.295493e+00 
1.307214e+00 
1.319296e+00 
1.331733e+00 
1.344519e+00 
1.357649e+00 
1.371118e+00 
1.384919e+00 
1.399047e+00 
1.413496e+00 
1.428260e+00 
1.443334e+00 
1.458712e+00 
1.474388e+00 
2.358342e+00 
2.333477e+00 
2.308735e+00 
2.284120e+00 
2.259635e+00 
2.235282e+00 
2.211066e+00 
2.186990e+00 
2.163056e+00 
2.139268e+00 
2.115630e+00 
2.092145e+00 
2.068816e+00 
2.045649e+00 
2.022645e+00 
1.999809e+00 
1.977145e+00 
1.954658e+00 
1.932350e+00 
1.910226e+00 
1.888291e+00 
1.866548e+00 
1.845003e+00 
1.823659e+00 
1.802522e+00 
1.781596e+00 
1.760885e+00 
1.740395e+00 
1.720131e+00 
1.700097e+00 
1.680300e+00 
1.660743e+00 
1.641434e+00 
1.622376e+00 
1.603576e+00 
1.585040e+00 
1.566773e+00 
1.548780e+00 
1.531069e+00 
1.513646e+00 
1.496515e+00 
1.479685e+00 
1.463160e+00 
1.446948e+00 
1.431055e+00 
1.415487e+00 
1.400253e+00 
1.385357e+00 
1.370807e+00 
1.356611e+00 
1.342774e+00 
1.329305e+00 
1.316209e+00 
1.303495e+00 
1.291170e+00 
1.279239e+00 
1.267712e+00 
1.256594e+00 
1.245894e+00 
1.235617e+00 
1.225771e+00 
1.216363e+00 
1.207399e+00 
1.198886e+00 
1.190830e+00 
1.183236e+00 
1.176109e+00 
1.169450e+00 
1.163259e+00 
1.157526e+00 
1.152231e+00 
1.147338e+00 
1.142783e+00 
1.138470e+00 
1.134288e+00 
1.130143e+00 
1.126029e+00 
1.122002e+00 
1.118142e+00 
1.114537e+00 
1.111261e+00 
1.108368e+00 
1.105893e+00 
1.103858e+00 
1.102276e+00 
1.101155e+00 
1.100499e+00 
1.100311e+00 
1.100592e+00 
1.101342e+00 
1.102560e+00 
1.104245e+00 
1.106396e+00 
1.109008e+00 
1.112076e+00 
1.115599e+00 
1.119577e+00 
1.124008e+00 
1.128891e+00 
1.134222e+00 
1.139997e+00 
1.146212e+00 
1.152862e+00 
1.159942e+00 
1.167449e+00 
1.175377e+00 
1.183721e+00 
1.192476e+00 
1.201638e+00 
1.211201e+00 
1.221161e+00 
1.231512e+00 
1.242249e+00 
1.253366e+00 
1.264859e+00 
1.276722e+00 
1.288949e+00 
1.301535e+00 
1.314474e+00 
1.327761e+00 
1.341390e+00 
1.355356e+00 
1.369652e+00 
1.384273e+00 
1.399213e+00 
1.414467e+00 
1.430029e+00 
1.445892e+00 
2.338768e+00 
2.313778e+00 
2.288911e+00 
2.264169e+00 
2.239555e+00 
2.215072e+00 
2.190724e+00 
2.166513e+00 
2.142442e+00 
2.118516e+00 
2.094737e+00 
2.071109e+00 
2.047635e+00 
2.024319e+00 
2.001165e+00 
1.978177e+00 
1.955357e+00 
1.932711e+00 
1.910242e+00 
1.887954e+00 
1.865853e+00 
1.843941e+00 
1.822223e+00 
1.800704e+00 
1.779389e+00 
1.758282e+00 
1.737388e+00 
1.716712e+00 
1.696258e+00 
1.676034e+00 
1.656042e+00 
1.636289e+00 
1.616781e+00 
1.597523e+00 
1.578520e+00 
1.559778e+00 
1.541304e+00 
1.523104e+00 
1.505183e+00 
1.487547e+00 
1.470204e+00 
1.453160e+00 
1.436421e+00 
1.419994e+00 
1.403886e+00 
1.388104e+00 
1.372654e+00 
1.357544e+00 
1.342782e+00 
1.328373e+00 
1.314326e+00 
1.300648e+00 
1.287347e+00 
1.274429e+00 
1.261904e+00 
1.249777e+00 
1.238056e+00 
1.226750e+00 
1.215866e+00 
1.205411e+00 
1.195391e+00 
1.185816e+00 
1.176691e+00 
1.168024e+00 
1.159820e+00 
1.152086e+00 
1.144827e+00 
1.138043e+00 
1.131736e+00 
1.125895e+00 
1.120503e+00 
1.115522e+00 
1.110888e+00 
1.106505e+00 
1.102263e+00 
1.098080e+00 
1.093933e+00 
1.089867e+00 
1.085960e+00 
1.082302e+00 
1.078973e+00 
1.076030e+00 
1.073511e+00 
1.071440e+00 
1.069829e+00 
1.068688e+00 
1.068021e+00 
1.067831e+00 
1.068118e+00 
1.068883e+00 
1.070124e+00 
1.071840e+00 
1.074029e+00 
1.076680e+00 
1.079784e+00 
1.083340e+00 
1.087354e+00 
1.091829e+00 
1.096766e+00 
1.102161e+00 
1.108010e+00 
1.114306e+00 
1.121045e+00 
1.128221e+00 
1.135827e+00 
1.143858e+00 
1.152310e+00 
1.161177e+00 
1.170454e+00 
1.180136e+00 
1.190217e+00 
1.200692e+00 
1.211557e+00 
1.222804e+00 
1.234430e+00 
1.246428e+00 
1.258794e+00 
1.271521e+00 
1.284604e+00 
1.298038e+00 
1.311816e+00 
1.325934e+00 
1.340386e+00 
1.355166e+00 
1.370268e+00 
1.385686e+00 
1.401416e+00 
1.417451e+00 
2.319588e+00 
2.294471e+00 
2.269474e+00 
2.244601e+00 
2.219853e+00 
2.195233e+00 
2.170746e+00 
2.146393e+00 
2.122179e+00 
2.098105e+00 
2.074176e+00 
2.050396e+00 
2.026766e+00 
2.003292e+00 
1.979976e+00 
1.956823e+00 
1.933836e+00 
1.911019e+00 
1.888377e+00 
1.865912e+00 
1.843631e+00 
1.821536e+00 
1.799633e+00 
1.777925e+00 
1.756419e+00 
1.735117e+00 
1.714026e+00 
1.693151e+00 
1.672495e+00 
1.652066e+00 
1.631868e+00 
1.611906e+00 
1.592186e+00 
1.572715e+00 
1.553497e+00 
1.534539e+00 
1.515847e+00 
1.497426e+00 
1.479285e+00 
1.461428e+00 
1.443863e+00 
1.426596e+00 
1.409634e+00 
1.392984e+00 
1.376653e+00 
1.360649e+00 
1.344978e+00 
1.329648e+00 
1.314667e+00 
1.300041e+00 
1.285780e+00 
1.271890e+00 
1.258380e+00 
1.245257e+00 
1.232529e+00 
1.220205e+00 
1.208291e+00 
1.196797e+00 
1.185729e+00 
1.175096e+00 
1.164905e+00 
1.155165e+00 
1.145881e+00 
1.137061e+00 
1.128712e+00 
1.120841e+00 
1.113451e+00 
1.106545e+00 
1.100124e+00 
1.094178e+00 
1.088690e+00 
1.083623e+00 
1.078915e+00 
1.074472e+00 
1.070189e+00 
1.065990e+00 
1.061848e+00 
1.057770e+00 
1.053838e+00 
1.050148e+00 
1.046786e+00 
1.043814e+00 
1.041270e+00 
1.039180e+00 
1.037559e+00 
1.036416e+00 
1.035755e+00 
1.035579e+00 
1.035889e+00 
1.036683e+00 
1.037962e+00 
1.039722e+00 
1.041963e+00 
1.044661e+00 
1.047800e+00 
1.051381e+00 
1.055419e+00 
1.059928e+00 
1.064911e+00 
1.070368e+00 
1.076290e+00 
1.082671e+00 
1.089503e+00 
1.096777e+00 
1.104487e+00 
1.112627e+00 
1.121192e+00 
1.130174e+00 
1.139570e+00 
1.149372e+00 
1.159577e+00 
1.170179e+00 
1.181171e+00 
1.192549e+00 
1.204308e+00 
1.216440e+00 
1.228942e+00 
1.241808e+00 
1.255031e+00 
1.268607e+00 
1.282530e+00 
1.296794e+00 
1.311394e+00 
1.326324e+00 
1.341579e+00 
1.357152e+00 
1.373039e+00 
1.389233e+00 
2.300762e+00 
2.275510e+00 
2.250375e+00 
2.225361e+00 
2.200470e+00 
2.175704e+00 
2.151068e+00 
2.126563e+00 
2.102193e+00 
2.077962e+00 
2.053872e+00 
2.029927e+00 
2.006130e+00 
1.982486e+00 
1.958997e+00 
1.935667e+00 
1.912501e+00 
1.889501e+00 
1.866674e+00 
1.844021e+00 
1.821549e+00 
1.799260e+00 
1.777160e+00 
1.755254e+00 
1.733546e+00 
1.712041e+00 
1.690743e+00 
1.669659e+00 
1.648794e+00 
1.628151e+00 
1.607739e+00 
1.587561e+00 
1.567623e+00 
1.547932e+00 
1.528494e+00 
1.509313e+00 
1.490398e+00 
1.471754e+00 
1.453388e+00 
1.435306e+00 
1.417515e+00 
1.400023e+00 
1.382836e+00 
1.365961e+00 
1.349406e+00 
1.333178e+00 
1.317285e+00 
1.301734e+00 
1.286534e+00 
1.271693e+00 
1.257218e+00 
1.243117e+00 
1.229400e+00 
1.216073e+00 
1.203145e+00 
1.190625e+00 
1.178521e+00 
1.166841e+00 
1.155593e+00 
1.144785e+00 
1.134426e+00 
1.124522e+00 
1.115083e+00 
1.106114e+00 
1.097623e+00 
1.089616e+00 
1.082098e+00 
1.075073e+00 
1.068539e+00 
1.062490e+00 
1.056908e+00 
1.051759e+00 
1.046980e+00 
1.042486e+00 
1.038178e+00 
1.033978e+00 
1.029850e+00 
1.025776e+00 
1.021835e+00 
1.018130e+00 
1.014748e+00 
1.011757e+00 
1.009199e+00 
1.007100e+00 
1.005476e+00 
1.004338e+00 
1.003689e+00 
1.003533e+00 
1.003870e+00 
1.004699e+00 
1.006019e+00 
1.007828e+00 
1.010123e+00 
1.012870e+00 
1.016041e+00 
1.019643e+00 
1.023702e+00 
1.028241e+00 
1.033270e+00 
1.038788e+00 
1.044786e+00 
1.051254e+00 
1.058181e+00 
1.065558e+00 
1.073376e+00 
1.081629e+00 
1.090310e+00 
1.099412e+00 
1.108930e+00 
1.118858e+00 
1.129191e+00 
1.139922e+00 
1.151047e+00 
1.162559e+00 
1.174453e+00 
1.186723e+00 
1.199364e+00 
1.212370e+00 
1.225735e+00 
1.239454e+00 
1.253521e+00 
1.267931e+00 
1.282678e+00 
1.297757e+00 
1.313161e+00 
1.328886e+00 
1.344926e+00 
1.361274e+00 
2.282218e+00 
2.256821e+00 
2.231539e+00 
2.206374e+00 
2.181329e+00 
2.156407e+00 
2.131612e+00 
2.106945e+00 
2.082410e+00 
2.058011e+00 
2.033750e+00 
2.009631e+00 
1.985658e+00 
1.961835e+00 
1.938164e+00 
1.914649e+00 
1.891296e+00 
1.868107e+00 
1.845087e+00 
1.822240e+00 
1.799571e+00 
1.777083e+00 
1.754782e+00 
1.732672e+00 
1.710758e+00 
1.689045e+00 
1.667539e+00 
1.646243e+00 
1.625164e+00 
1.604307e+00 
1.583678e+00 
1.563282e+00 
1.543125e+00 
1.523214e+00 
1.503553e+00 
1.484150e+00 
1.465011e+00 
1.446142e+00 
1.427550e+00 
1.409242e+00 
1.391225e+00 
1.373506e+00 
1.356092e+00 
1.338992e+00 
1.322211e+00 
1.305759e+00 
1.289643e+00 
1.273871e+00 
1.258452e+00 
1.243393e+00 
1.228704e+00 
1.214392e+00 
1.200466e+00 
1.186935e+00 
1.173807e+00 
1.161091e+00 
1.148796e+00 
1.136929e+00 
1.125501e+00 
1.114518e+00 
1.103989e+00 
1.093922e+00 
1.084326e+00 
1.075207e+00 
1.066572e+00 
1.058429e+00 
1.050783e+00 
1.043636e+00 
1.036989e+00 
1.030836e+00 
1.025160e+00 
1.019928e+00 
1.015083e+00 
1.010544e+00 
1.006217e+00 
1.002016e+00 
9.978874e-01 
9.938157e-01 
9.898730e-01 
9.861567e-01 
9.827596e-01 
9.797517e-01 
9.771787e-01 
9.750694e-01 
9.734416e-01 
9.723055e-01 
9.716666e-01 
9.715273e-01 
9.718881e-01 
9.727485e-01 
9.741067e-01 
9.759608e-01 
9.783080e-01 
9.811055e-01 
9.843200e-01 
9.879609e-01 
9.920614e-01 
9.966509e-01 
1.001743e+00 
1.007335e+00 
1.013419e+00 
1.019981e+00 
1.027010e+00 
1.034495e+00 
1.042427e+00 
1.050797e+00 
1.059598e+00 
1.068825e+00 
1.078470e+00 
1.088527e+00 
1.098992e+00 
1.109857e+00 
1.121118e+00 
1.132768e+00 
1.144801e+00 
1.157212e+00 
1.169996e+00 
1.183145e+00 
1.196655e+00 
1.210520e+00 
1.224734e+00 
1.239291e+00 
1.254187e+00 
1.269415e+00 
1.284970e+00 
1.300846e+00 
1.317037e+00 
1.333539e+00 
2.263885e+00 
2.238336e+00 
2.212899e+00 
2.187576e+00 
2.162370e+00 
2.137286e+00 
2.112324e+00 
2.087489e+00 
2.062783e+00 
2.038211e+00 
2.013775e+00 
1.989478e+00 
1.965325e+00 
1.941318e+00 
1.917462e+00 
1.893761e+00 
1.870218e+00 
1.846837e+00 
1.823624e+00 
1.800581e+00 
1.777713e+00 
1.755026e+00 
1.732523e+00 
1.710209e+00 
1.688089e+00 
1.666168e+00 
1.644451e+00 
1.622944e+00 
1.601651e+00 
1.580578e+00 
1.559731e+00 
1.539115e+00 
1.518737e+00 
1.498602e+00 
1.478716e+00 
1.459086e+00 
1.439719e+00 
1.420621e+00 
1.401799e+00 
1.383260e+00 
1.365011e+00 
1.347059e+00 
1.329413e+00 
1.312080e+00 
1.295068e+00 
1.278386e+00 
1.262040e+00 
1.246041e+00 
1.230396e+00 
1.215114e+00 
1.200204e+00 
1.185675e+00 
1.171536e+00 
1.157795e+00 
1.144462e+00 
1.131546e+00 
1.119054e+00 
1.106997e+00 
1.095383e+00 
1.084221e+00 
1.073519e+00 
1.063285e+00 
1.053528e+00 
1.044255e+00 
1.035474e+00 
1.027192e+00 
1.019413e+00 
1.012142e+00 
1.005379e+00 
9.991195e-01 
9.933474e-01 
9.880320e-01 
9.831216e-01 
9.785420e-01 
9.741985e-01 
9.699936e-01 
9.658511e-01 
9.617808e-01 
9.578377e-01 
9.541123e-01 
9.506993e-01 
9.476730e-01 
9.450832e-01 
9.429613e-01 
9.413268e-01 
9.401906e-01 
9.395587e-01 
9.394336e-01 
9.398159e-01 
9.407050e-01 
9.420991e-01 
9.439960e-01 
9.463930e-01 
9.492488e-01 
9.525315e-01 
9.562499e-01 
9.604355e-01 
9.651160e-01 
9.703034e-01 
9.759958e-01 
9.821834e-01 
9.888536e-01 
9.959942e-01 
1.003594e+00 
1.011645e+00 
1.020137e+00 
1.029064e+00 
1.038419e+00 
1.048196e+00 
1.058387e+00 
1.068988e+00 
1.079992e+00 
1.091393e+00 
1.103185e+00 
1.115362e+00 
1.127918e+00 
1.140847e+00 
1.154143e+00 
1.167800e+00 
1.181813e+00 
1.196176e+00 
1.210883e+00 
1.225928e+00 
1.241306e+00 
1.257011e+00 
1.273038e+00 
1.289380e+00 
1.306034e+00 
2.245727e+00 
2.220021e+00 
2.194425e+00 
2.168942e+00 
2.143573e+00 
2.118323e+00 
2.093194e+00 
2.068189e+00 
2.043311e+00 
2.018565e+00 
1.993952e+00 
1.969477e+00 
1.945143e+00 
1.920953e+00 
1.896912e+00 
1.873023e+00 
1.849290e+00 
1.825718e+00 
1.802310e+00 
1.779070e+00 
1.756003e+00 
1.733114e+00 
1.710407e+00 
1.687886e+00 
1.665556e+00 
1.643423e+00 
1.621492e+00 
1.599767e+00 
1.578254e+00 
1.556958e+00 
1.535885e+00 
1.515041e+00 
1.494432e+00 
1.474064e+00 
1.453943e+00 
1.434077e+00 
1.414470e+00 
1.395132e+00 
1.376068e+00 
1.357286e+00 
1.338794e+00 
1.320599e+00 
1.302710e+00 
1.285135e+00 
1.267882e+00 
1.250959e+00 
1.234376e+00 
1.218141e+00 
1.202263e+00 
1.186752e+00 
1.171616e+00 
1.156864e+00 
1.142507e+00 
1.128552e+00 
1.115010e+00 
1.101890e+00 
1.089200e+00 
1.076951e+00 
1.065150e+00 
1.053807e+00 
1.042930e+00 
1.032528e+00 
1.022609e+00 
1.013182e+00 
1.004253e+00 
9.958303e-01 
9.879188e-01 
9.805228e-01 
9.736434e-01 
9.672765e-01 
9.614086e-01 
9.560123e-01 
9.510411e-01 
9.464258e-01 
9.420710e-01 
9.378695e-01 
9.337282e-01 
9.296694e-01 
9.257318e-01 
9.220006e-01 
9.185738e-01 
9.155311e-01 
9.129267e-01 
9.107949e-01 
9.091563e-01 
9.080228e-01 
9.074004e-01 
9.072919e-01 
9.076981e-01 
9.086181e-01 
9.100503e-01 
9.119922e-01 
9.144410e-01 
9.173652e-01 
9.207403e-01 
9.245716e-01 
9.288813e-01 
9.336888e-01 
9.390012e-01 
9.448158e-01 
9.511234e-01 
9.579132e-01 
9.651743e-01 
9.728969e-01 
9.810724e-01 
9.896929e-01 
9.987513e-01 
1.008241e+00 
1.018154e+00 
1.028486e+00 
1.039229e+00 
1.050378e+00 
1.061925e+00 
1.073866e+00 
1.086192e+00 
1.098899e+00 
1.111979e+00 
1.125427e+00 
1.139238e+00 
1.153404e+00 
1.167919e+00 
1.182779e+00 
1.197977e+00 
1.213507e+00 
1.229364e+00 
1.245542e+00 
1.262036e+00 
1.278840e+00 
2.227735e+00 
2.201872e+00 
2.176116e+00 
2.150471e+00 
2.124939e+00 
2.099522e+00 
2.074225e+00 
2.049049e+00 
2.023999e+00 
1.999077e+00 
1.974286e+00 
1.949630e+00 
1.925113e+00 
1.900738e+00 
1.876509e+00 
1.852429e+00 
1.828502e+00 
1.804732e+00 
1.781124e+00 
1.757681e+00 
1.734408e+00 
1.711309e+00 
1.688388e+00 
1.665651e+00 
1.643102e+00 
1.620745e+00 
1.598587e+00 
1.576632e+00 
1.554886e+00 
1.533355e+00 
1.512043e+00 
1.490958e+00 
1.470104e+00 
1.449490e+00 
1.429121e+00 
1.409005e+00 
1.389148e+00 
1.369557e+00 
1.350242e+00 
1.331208e+00 
1.312464e+00 
1.294019e+00 
1.275882e+00 
1.258059e+00 
1.240561e+00 
1.223397e+00 
1.206574e+00 
1.190104e+00 
1.173995e+00 
1.158256e+00 
1.142897e+00 
1.127927e+00 
1.113356e+00 
1.099193e+00 
1.085448e+00 
1.072130e+00 
1.059248e+00 
1.046812e+00 
1.034830e+00 
1.023312e+00 
1.012267e+00 
1.001702e+00 
9.916275e-01 
9.820503e-01 
9.729786e-01 
9.644192e-01 
9.563785e-01 
9.488609e-01 
9.418681e-01 
9.353972e-01 
9.294370e-01 
9.239640e-01 
9.189374e-01 
9.142924e-01 
9.099357e-01 
9.057563e-01 
9.016494e-01 
8.976178e-01 
8.936931e-01 
8.899603e-01 
8.865234e-01 
8.834683e-01 
8.808536e-01 
8.787161e-01 
8.770776e-01 
8.759503e-01 
8.753409e-01 
8.752523e-01 
8.756851e-01 
8.766387e-01 
8.781113e-01 
8.801007e-01 
8.826037e-01 
8.856008e-01 
8.890762e-01 
8.930314e-01 
8.974771e-01 
9.024223e-01 
9.078690e-01 
9.138130e-01 
9.202468e-01 
9.271614e-01 
9.345479e-01 
9.423980e-01 
9.507039e-01 
9.594582e-01 
9.686540e-01 
9.782845e-01 
9.883428e-01 
9.988223e-01 
1.009716e+00 
1.021018e+00 
1.032721e+00 
1.044819e+00 
1.057305e+00 
1.070172e+00 
1.083415e+00 
1.097025e+00 
1.110998e+00 
1.125327e+00 
1.140006e+00 
1.155028e+00 
1.170387e+00 
1.186078e+00 
1.202095e+00 
1.218432e+00 
1.235083e+00 
1.252043e+00 
2.209887e+00 
2.183864e+00 
2.157947e+00 
2.132138e+00 
2.106439e+00 
2.080853e+00 
2.055383e+00 
2.030033e+00 
2.004805e+00 
1.979703e+00 
1.954728e+00 
1.929886e+00 
1.905179e+00 
1.880611e+00 
1.856185e+00 
1.831905e+00 
1.807774e+00 
1.783798e+00 
1.759979e+00 
1.736322e+00 
1.712831e+00 
1.689510e+00 
1.666365e+00 
1.643399e+00 
1.620618e+00 
1.598026e+00 
1.575630e+00 
1.553434e+00 
1.531444e+00 
1.509666e+00 
1.488107e+00 
1.466771e+00 
1.445667e+00 
1.424801e+00 
1.404179e+00 
1.383810e+00 
1.363701e+00 
1.343859e+00 
1.324293e+00 
1.305010e+00 
1.286021e+00 
1.267332e+00 
1.248953e+00 
1.230892e+00 
1.213160e+00 
1.195765e+00 
1.178716e+00 
1.162024e+00 
1.145696e+00 
1.129744e+00 
1.114176e+00 
1.099002e+00 
1.084232e+00 
1.069874e+00 
1.055939e+00 
1.042436e+00 
1.029375e+00 
1.016764e+00 
1.004612e+00 
9.929291e-01 
9.817239e-01 
9.710050e-01 
9.607811e-01 
9.510604e-01 
9.418509e-01 
9.331598e-01 
9.249938e-01 
9.173577e-01 
9.102542e-01 
9.036816e-01 
8.976313e-01 
8.920839e-01 
8.870034e-01 
8.823303e-01 
8.779760e-01 
8.738288e-01 
8.697762e-01 
8.657787e-01 
8.618679e-01 
8.581331e-01 
8.546854e-01 
8.516171e-01 
8.489912e-01 
8.468465e-01 
8.452062e-01 
8.440831e-01 
8.434843e-01 
8.434129e-01 
8.438699e-01 
8.448547e-01 
8.463657e-01 
8.484005e-01 
8.509561e-01 
8.540218e-01 
8.575887e-01 
8.616549e-01 
8.662228e-01 
8.712934e-01 
8.768648e-01 
8.829319e-01 
8.894882e-01 
8.965264e-01 
9.040391e-01 
9.120189e-01 
9.204587e-01 
9.293516e-01 
9.386906e-01 
9.484688e-01 
9.586793e-01 
9.693151e-01 
9.803692e-01 
9.918346e-01 
1.003704e+00 
1.015971e+00 
1.028629e+00 
1.041670e+00 
1.055087e+00 
1.068874e+00 
1.083024e+00 
1.097531e+00 
1.112387e+00 
1.127586e+00 
1.143122e+00 
1.158989e+00 
1.175181e+00 
1.191690e+00 
1.208513e+00 
1.225642e+00 
2.192127e+00 
2.165942e+00 
2.139859e+00 
2.113880e+00 
2.088010e+00 
2.062249e+00 
2.036602e+00 
2.011071e+00 
1.985659e+00 
1.960369e+00 
1.935204e+00 
1.910168e+00 
1.885264e+00 
1.860494e+00 
1.835864e+00 