# vtk DataFile Version 2.0 
Quadtree Mesh 
ASCII 
DATASET UNSTRUCTURED_GRID 
POINTS 16384 double 
-1.000000e+00 -1.000000e+00 0.000000e+00
-9.842520e-01 -1.000000e+00 0.000000e+00
-9.685039e-01 -1.000000e+00 0.000000e+00
-9.527559e-01 -1.000000e+00 0.000000e+00
-9.370079e-01 -1.000000e+00 0.000000e+00
-9.212598e-01 -1.000000e+00 0.000000e+00
-9.055118e-01 -1.000000e+00 0.000000e+00
-8.897638e-01 -1.000000e+00 0.000000e+00
-8.740157e-01 -1.000000e+00 0.000000e+00
-8.582677e-01 -1.000000e+00 0.000000e+00
-8.425197e-01 -1.000000e+00 0.000000e+00
-8.267717e-01 -1.000000e+00 0.000000e+00
-8.110236e-01 -1.000000e+00 0.000000e+00
-7.952756e-01 -1.000000e+00 0.000000e+00
-7.795276e-01 -1.000000e+00 0.000000e+00
-7.637795e-01 -1.000000e+00 0.000000e+00
-7.480315e-01 -1.000000e+00 0.000000e+00
-7.322835e-01 -1.000000e+00 0.000000e+00
-7.165354e-01 -1.000000e+00 0.000000e+00
-7.007874e-01 -1.000000e+00 0.000000e+00
-6.850394e-01 -1.000000e+00 0.000000e+00
-6.692913e-01 -1.000000e+00 0.000000e+00
-6.535433e-01 -1.000000e+00 0.000000e+00
-6.377953e-01 -1.000000e+00 0.000000e+00
-6.220472e-01 -1.000000e+00 0.000000e+00
-6.062992e-01 -1.000000e+00 0.000000e+00
-5.905512e-01 -1.000000e+00 0.000000e+00
-5.748031e-01 -1.000000e+00 0.000000e+00
-5.590551e-01 -1.000000e+00 0.000000e+00
-5.433071e-01 -1.000000e+00 0.000000e+00
-5.275591e-01 -1.000000e+00 0.000000e+00
-5.118110e-01 -1.000000e+00 0.000000e+00
-4.960630e-01 -1.000000e+00 0.000000e+00
-4.803150e-01 -1.000000e+00 0.000000e+00
-4.645669e-01 -1.000000e+00 0.000000e+00
-4.488189e-01 -1.000000e+00 0.000000e+00
-4.330709e-01 -1.000000e+00 0.000000e+00
-4.173228e-01 -1.000000e+00 0.000000e+00
-4.015748e-01 -1.000000e+00 0.000000e+00
-3.858268e-01 -1.000000e+00 0.000000e+00
-3.700787e-01 -1.000000e+00 0.000000e+00
-3.543307e-01 -1.000000e+00 0.000000e+00
-3.385827e-01 -1.000000e+00 0.000000e+00
-3.228346e-01 -1.000000e+00 0.000000e+00
-3.070866e-01 -1.000000e+00 0.000000e+00
-2.913386e-01 -1.000000e+00 0.000000e+00
-2.755906e-01 -1.000000e+00 0.000000e+00
-2.598425e-01 -1.000000e+00 0.000000e+00
-2.440945e-01 -1.000000e+00 0.000000e+00
-2.283465e-01 -1.000000e+00 0.000000e+00
-2.125984e-01 -1.000000e+00 0.000000e+00
-1.968504e-01 -1.000000e+00 0.000000e+00
-1.811024e-01 -1.000000e+00 0.000000e+00
-1.653543e-01 -1.000000e+00 0.000000e+00
-1.496063e-01 -1.000000e+00 0.000000e+00
-1.338583e-01 -1.000000e+00 0.000000e+00
-1.181102e-01 -1.000000e+00 0.000000e+00
-1.023622e-01 -1.000000e+00 0.000000e+00
-8.661417e-02 -1.000000e+00 0.000000e+00
-7.086614e-02 -1.000000e+00 0.000000e+00
-5.511811e-02 -1.000000e+00 0.000000e+00
-3.937008e-02 -1.000000e+00 0.000000e+00
-2.362205e-02 -1.000000e+00 0.000000e+00
-7.874016e-03 -1.000000e+00 0.000000e+00
7.874016e-03 -1.000000e+00 0.000000e+00
2.362205e-02 -1.000000e+00 0.000000e+00
3.937008e-02 -1.000000e+00 0.000000e+00
5.511811e-02 -1.000000e+00 0.000000e+00
7.086614e-02 -1.000000e+00 0.000000e+00
8.661417e-02 -1.000000e+00 0.000000e+00
1.023622e-01 -1.000000e+00 0.000000e+00
1.181102e-01 -1.000000e+00 0.000000e+00
1.338583e-01 -1.000000e+00 0.000000e+00
1.496063e-01 -1.000000e+00 0.000000e+00
1.653543e-01 -1.000000e+00 0.000000e+00
1.811024e-01 -1.000000e+00 0.000000e+00
1.968504e-01 -1.000000e+00 0.000000e+00
2.125984e-01 -1.000000e+00 0.000000e+00
2.283465e-01 -1.000000e+00 0.000000e+00
2.440945e-01 -1.000000e+00 0.000000e+00
2.598425e-01 -1.000000e+00 0.000000e+00
2.755906e-01 -1.000000e+00 0.000000e+00
2.913386e-01 -1.000000e+00 0.000000e+00
3.070866e-01 -1.000000e+00 0.000000e+00
3.228346e-01 -1.000000e+00 0.000000e+00
3.385827e-01 -1.000000e+00 0.000000e+00
3.543307e-01 -1.000000e+00 0.000000e+00
3.700787e-01 -1.000000e+00 0.000000e+00
3.858268e-01 -1.000000e+00 0.000000e+00
4.015748e-01 -1.000000e+00 0.000000e+00
4.173228e-01 -1.000000e+00 0.000000e+00
4.330709e-01 -1.000000e+00 0.000000e+00
4.488189e-01 -1.000000e+00 0.000000e+00
4.645669e-01 -1.000000e+00 0.000000e+00
4.803150e-01 -1.000000e+00 0.000000e+00
4.960630e-01 -1.000000e+00 0.000000e+00
5.118110e-01 -1.000000e+00 0.000000e+00
5.275591e-01 -1.000000e+00 0.000000e+00
5.433071e-01 -1.000000e+00 0.000000e+00
5.590551e-01 -1.000000e+00 0.000000e+00
5.748031e-01 -1.000000e+00 0.000000e+00
5.905512e-01 -1.000000e+00 0.000000e+00
6.062992e-01 -1.000000e+00 0.000000e+00
6.220472e-01 -1.000000e+00 0.000000e+00
6.377953e-01 -1.000000e+00 0.000000e+00
6.535433e-01 -1.000000e+00 0.000000e+00
6.692913e-01 -1.000000e+00 0.000000e+00
6.850394e-01 -1.000000e+00 0.000000e+00
7.007874e-01 -1.000000e+00 0.000000e+00
7.165354e-01 -1.000000e+00 0.000000e+00
7.322835e-01 -1.000000e+00 0.000000e+00
7.480315e-01 -1.000000e+00 0.000000e+00
7.637795e-01 -1.000000e+00 0.000000e+00
7.795276e-01 -1.000000e+00 0.000000e+00
7.952756e-01 -1.000000e+00 0.000000e+00
8.110236e-01 -1.000000e+00 0.000000e+00
8.267717e-01 -1.000000e+00 0.000000e+00
8.425197e-01 -1.000000e+00 0.000000e+00
8.582677e-01 -1.000000e+00 0.000000e+00
8.740157e-01 -1.000000e+00 0.000000e+00
8.897638e-01 -1.000000e+00 0.000000e+00
9.055118e-01 -1.000000e+00 0.000000e+00
9.212598e-01 -1.000000e+00 0.000000e+00
9.370079e-01 -1.000000e+00 0.000000e+00
9.527559e-01 -1.000000e+00 0.000000e+00
9.685039e-01 -1.000000e+00 0.000000e+00
9.842520e-01 -1.000000e+00 0.000000e+00
1.000000e+00 -1.000000e+00 0.000000e+00
-1.000000e+00 -9.842520e-01 0.000000e+00
-9.842520e-01 -9.842520e-01 0.000000e+00
-9.685039e-01 -9.842520e-01 0.000000e+00
-9.527559e-01 -9.842520e-01 0.000000e+00
-9.370079e-01 -9.842520e-01 0.000000e+00
-9.212598e-01 -9.842520e-01 0.000000e+00
-9.055118e-01 -9.842520e-01 0.000000e+00
-8.897638e-01 -9.842520e-01 0.000000e+00
-8.740157e-01 -9.842520e-01 0.000000e+00
-8.582677e-01 -9.842520e-01 0.000000e+00
-8.425197e-01 -9.842520e-01 0.000000e+00
-8.267717e-01 -9.842520e-01 0.000000e+00
-8.110236e-01 -9.842520e-01 0.000000e+00
-7.952756e-01 -9.842520e-01 0.000000e+00
-7.795276e-01 -9.842520e-01 0.000000e+00
-7.637795e-01 -9.842520e-01 0.000000e+00
-7.480315e-01 -9.842520e-01 0.000000e+00
-7.322835e-01 -9.842520e-01 0.000000e+00
-7.165354e-01 -9.842520e-01 0.000000e+00
-7.007874e-01 -9.842520e-01 0.000000e+00
-6.850394e-01 -9.842520e-01 0.000000e+00
-6.692913e-01 -9.842520e-01 0.000000e+00
-6.535433e-01 -9.842520e-01 0.000000e+00
-6.377953e-01 -9.842520e-01 0.000000e+00
-6.220472e-01 -9.842520e-01 0.000000e+00
-6.062992e-01 -9.842520e-01 0.000000e+00
-5.905512e-01 -9.842520e-01 0.000000e+00
-5.748031e-01 -9.842520e-01 0.000000e+00
-5.590551e-01 -9.842520e-01 0.000000e+00
-5.433071e-01 -9.842520e-01 0.000000e+00
-5.275591e-01 -9.842520e-01 0.000000e+00
-5.118110e-01 -9.842520e-01 0.000000e+00
-4.960630e-01 -9.842520e-01 0.000000e+00
-4.803150e-01 -9.842520e-01 0.000000e+00
-4.645669e-01 -9.842520e-01 0.000000e+00
-4.488189e-01 -9.842520e-01 0.000000e+00
-4.330709e-01 -9.842520e-01 0.000000e+00
-4.173228e-01 -9.842520e-01 0.000000e+00
-4.015748e-01 -9.842520e-01 0.000000e+00
-3.858268e-01 -9.842520e-01 0.000000e+00
-3.700787e-01 -9.842520e-01 0.000000e+00
-3.543307e-01 -9.842520e-01 0.000000e+00
-3.385827e-01 -9.842520e-01 0.000000e+00
-3.228346e-01 -9.842520e-01 0.000000e+00
-3.070866e-01 -9.842520e-01 0.000000e+00
-2.913386e-01 -9.842520e-01 0.000000e+00
-2.755906e-01 -9.842520e-01 0.000000e+00
-2.598425e-01 -9.842520e-01 0.000000e+00
-2.440945e-01 -9.842520e-01 0.000000e+00
-2.283465e-01 -9.842520e-01 0.000000e+00
-2.125984e-01 -9.842520e-01 0.000000e+00
-1.968504e-01 -9.842520e-01 0.000000e+00
-1.811024e-01 -9.842520e-01 0.000000e+00
-1.653543e-01 -9.842520e-01 0.000000e+00
-1.496063e-01 -9.842520e-01 0.000000e+00
-1.338583e-01 -9.842520e-01 0.000000e+00
-1.181102e-01 -9.842520e-01 0.000000e+00
-1.023622e-01 -9.842520e-01 0.000000e+00
-8.661417e-02 -9.842520e-01 0.000000e+00
-7.086614e-02 -9.842520e-01 0.000000e+00
-5.511811e-02 -9.842520e-01 0.000000e+00
-3.937008e-02 -9.842520e-01 0.000000e+00
-2.362205e-02 -9.842520e-01 0.000000e+00
-7.874016e-03 -9.842520e-01 0.000000e+00
7.874016e-03 -9.842520e-01 0.000000e+00
2.362205e-02 -9.842520e-01 0.000000e+00
3.937008e-02 -9.842520e-01 0.000000e+00
5.511811e-02 -9.842520e-01 0.000000e+00
7.086614e-02 -9.842520e-01 0.000000e+00
8.661417e-02 -9.842520e-01 0.000000e+00
1.023622e-01 -9.842520e-01 0.000000e+00
1.181102e-01 -9.842520e-01 0.000000e+00
1.338583e-01 -9.842520e-01 0.000000e+00
1.496063e-01 -9.842520e-01 0.000000e+00
1.653543e-01 -9.842520e-01 0.000000e+00
1.811024e-01 -9.842520e-01 0.000000e+00
1.968504e-01 -9.842520e-01 0.000000e+00
2.125984e-01 -9.842520e-01 0.000000e+00
2.283465e-01 -9.842520e-01 0.000000e+00
2.440945e-01 -9.842520e-01 0.000000e+00
2.598425e-01 -9.842520e-01 0.000000e+00
2.755906e-01 -9.842520e-01 0.000000e+00
2.913386e-01 -9.842520e-01 0.000000e+00
3.070866e-01 -9.842520e-01 0.000000e+00
3.228346e-01 -9.842520e-01 0.000000e+00
3.385827e-01 -9.842520e-01 0.000000e+00
3.543307e-01 -9.842520e-01 0.000000e+00
3.700787e-01 -9.842520e-01 0.000000e+00
3.858268e-01 -9.842520e-01 0.000000e+00
4.015748e-01 -9.842520e-01 0.000000e+00
4.173228e-01 -9.842520e-01 0.000000e+00
4.330709e-01 -9.842520e-01 0.000000e+00
4.488189e-01 -9.842520e-01 0.000000e+00
4.645669e-01 -9.842520e-01 0.000000e+00
4.803150e-01 -9.842520e-01 0.000000e+00
4.960630e-01 -9.842520e-01 0.000000e+00
5.118110e-01 -9.842520e-01 0.000000e+00
5.275591e-01 -9.842520e-01 0.000000e+00
5.433071e-01 -9.842520e-01 0.000000e+00
5.590551e-01 -9.842520e-01 0.000000e+00
5.748031e-01 -9.842520e-01 0.000000e+00
5.905512e-01 -9.842520e-01 0.000000e+00
6.062992e-01 -9.842520e-01 0.000000e+00
6.220472e-01 -9.842520e-01 0.000000e+00
6.377953e-01 -9.842520e-01 0.000000e+00
6.535433e-01 -9.842520e-01 0.000000e+00
6.692913e-01 -9.842520e-01 0.000000e+00
6.850394e-01 -9.842520e-01 0.000000e+00
7.007874e-01 -9.842520e-01 0.000000e+00
7.165354e-01 -9.842520e-01 0.000000e+00
7.322835e-01 -9.842520e-01 0.000000e+00
7.480315e-01 -9.842520e-01 0.000000e+00
7.637795e-01 -9.842520e-01 0.000000e+00
7.795276e-01 -9.842520e-01 0.000000e+00
7.952756e-01 -9.842520e-01 0.000000e+00
8.110236e-01 -9.842520e-01 0.000000e+00
[...]
POINT_DATA 16384 
SCALARS concentration double 1 
LOOKUP_TABLE default 
2.746824e+00 
2.722295e+00 
2.697889e+00 
2.673611e+00 
2.649462e+00 
2.625445e+00 
2.601565e+00 
2.577823e+00 
2.554223e+00 
2.530770e+00 
2.507465e+00 
2.484313e+00 
2.461317e+00 
2.438481e+00 
2.415809e+00 
2.393305e+00 
2.370972e+00 
2.348815e+00 
2.326838e+00 
2.305045e+00 
2.283441e+00 
2.262030e+00 
2.240817e+00 
2.219806e+00 
2.199003e+00 
2.178411e+00 
2.158037e+00 
2.137885e+00 
2.117960e+00 
2.098269e+00 
2.078815e+00 
2.059605e+00 
2.040645e+00 
2.021940e+00 
2.003495e+00 
1.985317e+00 
1.967412e+00 
1.949786e+00 
1.932445e+00 
1.915395e+00 
1.898643e+00 
1.882195e+00 
1.866057e+00 
1.850237e+00 
1.834739e+00 
1.819572e+00 
1.804742e+00 
1.790255e+00 
1.776118e+00 
1.762339e+00 
1.748922e+00 
1.735876e+00 
1.723207e+00 
1.710922e+00 
1.699026e+00 
1.687527e+00 
1.676431e+00 
1.665745e+00 
1.655474e+00 
1.645625e+00 
1.636204e+00 
1.627216e+00 
1.618667e+00 
1.610563e+00 
1.602909e+00 
1.595711e+00 
1.588972e+00 
1.582697e+00 
1.576892e+00 
1.571559e+00 
1.566700e+00 
1.562303e+00 
1.558294e+00 
1.554531e+00 
1.551197e+00 
1.548336e+00 
1.545959e+00 
1.544069e+00 
1.542666e+00 
1.541753e+00 
1.541330e+00 
1.541396e+00 
1.541952e+00 
1.542996e+00 
1.544529e+00 
1.546549e+00 
1.549054e+00 
1.552043e+00 
1.555513e+00 
1.559461e+00 
1.563885e+00 
1.568782e+00 
1.574148e+00 
1.579979e+00 
1.586271e+00 
1.593021e+00 
1.600223e+00 
1.607873e+00 
1.615966e+00 
1.624497e+00 
1.633460e+00 
1.642850e+00 
1.652661e+00 
1.662888e+00 
1.673524e+00 
1.684565e+00 
1.696002e+00 
1.707831e+00 
1.720045e+00 
1.732637e+00 
1.745602e+00 
1.758933e+00 
1.772623e+00 
1.786666e+00 
1.801056e+00 
1.815786e+00 
1.830849e+00 
1.846240e+00 
1.861952e+00 
1.877978e+00 
1.894313e+00 
1.910949e+00 
1.927881e+00 
1.945103e+00 
1.962609e+00 
1.980392e+00 
1.998448e+00 
2.016769e+00 
2.727244e+00 
2.702563e+00 
2.678004e+00 
2.653570e+00 
2.629264e+00 
2.605090e+00 
2.581049e+00 
2.557146e+00 
2.533383e+00 
2.509764e+00 
2.486293e+00 
2.462973e+00 
2.439808e+00 
2.416801e+00 
2.393957e+00 
2.371279e+00 
2.348771e+00 
2.326437e+00 
2.304282e+00 
2.282310e+00 
2.260525e+00 
2.238932e+00 
2.217536e+00 
2.196341e+00 
2.175352e+00 
2.154574e+00 
2.134012e+00 
2.113672e+00 
2.093558e+00 
2.073677e+00 
2.054033e+00 
2.034632e+00 
2.015480e+00 
1.996583e+00 
1.977946e+00 
1.959576e+00 
1.941479e+00 
1.923661e+00 
1.906128e+00 
1.888887e+00 
1.871944e+00 
1.855306e+00 
1.838980e+00 
1.822971e+00 
1.807287e+00 
1.791935e+00 
1.776921e+00 
1.762252e+00 
1.747936e+00 
1.733979e+00 
1.720388e+00 
1.707169e+00 
1.694331e+00 
1.681879e+00 
1.669821e+00 
1.658163e+00 
1.646913e+00 
1.636075e+00 
1.625658e+00 
1.615667e+00 
1.606108e+00 
1.596988e+00 
1.588313e+00 
1.580088e+00 
1.572319e+00 
1.565011e+00 
1.558169e+00 
1.551798e+00 
1.545903e+00 
1.540487e+00 
1.535553e+00 
1.531093e+00 
1.527054e+00 
1.523242e+00 
1.519858e+00 
1.516954e+00 
1.514540e+00 
1.512620e+00 
1.511196e+00 
1.510269e+00 
1.509839e+00 
1.509906e+00 
1.510471e+00 
1.511533e+00 
1.513090e+00 
1.515142e+00 
1.517687e+00 
1.520723e+00 
1.524247e+00 
1.528257e+00 
1.532750e+00 
1.537723e+00 
1.543171e+00 
1.549091e+00 
1.555479e+00 
1.562330e+00 
1.569640e+00 
1.577404e+00 
1.585616e+00 
1.594271e+00 
1.603364e+00 
1.612888e+00 
1.622839e+00 
1.633210e+00 
1.643994e+00 
1.655187e+00 
1.666780e+00 
1.678768e+00 
1.691145e+00 
1.703904e+00 
1.717037e+00 
1.730540e+00 
1.744404e+00 
1.758624e+00 
1.773192e+00 
1.788102e+00 
1.803347e+00 
1.818922e+00 
1.834818e+00 
1.851030e+00 
1.867551e+00 
1.884376e+00 
1.901496e+00 
1.918907e+00 
1.936602e+00 
1.954575e+00 
1.972819e+00 
1.991330e+00 
2.707857e+00 
2.683023e+00 
2.658310e+00 
2.633721e+00 
2.609257e+00 
2.584924e+00 
2.560722e+00 
2.536657e+00 
2.512730e+00 
2.488946e+00 
2.465308e+00 
2.441819e+00 
2.418484e+00 
2.395305e+00 
2.372287e+00 
2.349433e+00 
2.326749e+00 
2.304237e+00 
2.281902e+00 
2.259749e+00 
2.237782e+00 
2.216006e+00 
2.194424e+00 
2.173043e+00 
2.151867e+00 
2.130900e+00 
2.110149e+00 
2.089618e+00 
2.069313e+00 
2.049239e+00 
2.029402e+00 
2.009808e+00 
1.990462e+00 
1.971370e+00 
1.952538e+00 
1.933973e+00 
1.915681e+00 
1.897668e+00 
1.879940e+00 
1.862504e+00 
1.845367e+00 
1.828535e+00 
1.812016e+00 
1.795816e+00 
1.779941e+00 
1.764400e+00 
1.749199e+00 
1.734345e+00 
1.719845e+00 
1.705706e+00 
1.691936e+00 
1.678541e+00 
1.665530e+00 
1.652908e+00 
1.640683e+00 
1.628862e+00 
1.617452e+00 
1.606460e+00 
1.595892e+00 
1.585755e+00 
1.576056e+00 
1.566800e+00 
1.557995e+00 
1.549645e+00 
1.541757e+00 
1.534337e+00 
1.527388e+00 
1.520918e+00 
1.514930e+00 
1.509428e+00 
1.504417e+00 
1.499891e+00 
1.495809e+00 
1.491957e+00 
1.488524e+00 
1.485574e+00 
1.483122e+00 
1.481172e+00 
1.479726e+00 
1.478784e+00 
1.478348e+00 
1.478417e+00 
1.478991e+00 
1.480071e+00 
1.481653e+00 
1.483739e+00 
1.486324e+00 
1.489409e+00 
1.492989e+00 
1.497063e+00 
1.501627e+00 
1.506677e+00 
1.512210e+00 
1.518222e+00 
1.524709e+00 
1.531665e+00 
1.539085e+00 
1.546966e+00 
1.555300e+00 
1.564083e+00 
1.573310e+00 
1.582973e+00 
1.593066e+00 
1.603585e+00 
1.614521e+00 
1.625870e+00 
1.637623e+00 
1.649775e+00 
1.662319e+00 
1.675247e+00 
1.688554e+00 
1.702232e+00 
1.716274e+00 
1.730674e+00 
1.745424e+00 
1.760518e+00 
1.775949e+00 
1.791711e+00 
1.807795e+00 
1.824197e+00 
1.840909e+00 
1.857924e+00 
1.875236e+00 
1.892839e+00 
1.910727e+00 
1.928892e+00 
1.947329e+00 
1.966032e+00 
2.688665e+00 
2.663679e+00 
2.638812e+00 
2.614066e+00 
2.589445e+00 
2.564951e+00 
2.540589e+00 
2.516360e+00 
2.492269e+00 
2.468319e+00 
2.444513e+00 
2.420854e+00 
2.397347e+00 
2.373995e+00 
2.350803e+00 
2.327773e+00 
2.304910e+00 
2.282219e+00 
2.259704e+00 
2.237368e+00 
2.215217e+00 
2.193255e+00 
2.171487e+00 
2.149918e+00 
2.128552e+00 
2.107395e+00 
2.086452e+00 
2.065728e+00 
2.045230e+00 
2.024961e+00 
2.004928e+00 
1.985138e+00 
1.965594e+00 
1.946305e+00 
1.927276e+00 
1.908512e+00 
1.890022e+00 
1.871810e+00 
1.853884e+00 
1.836250e+00 
1.818915e+00 
1.801886e+00 
1.785171e+00 
1.768775e+00 
1.752706e+00 
1.736972e+00 
1.721579e+00 
1.706535e+00 
1.691848e+00 
1.677524e+00 
1.663570e+00 
1.649996e+00 
1.636806e+00 
1.624010e+00 
1.611614e+00 
1.599626e+00 
1.588053e+00 
1.576901e+00 
1.566179e+00 
1.555892e+00 
1.546047e+00 
1.536652e+00 
1.527713e+00 
1.519235e+00 
1.511225e+00 
1.503688e+00 
1.496631e+00 
1.490058e+00 
1.483974e+00 
1.478384e+00 
1.473292e+00 
1.468696e+00 
1.464557e+00 
1.460675e+00 
1.457195e+00 
1.454199e+00 
1.451708e+00 
1.449726e+00 
1.448257e+00 
1.447300e+00 
1.446857e+00 
1.446928e+00 
1.447512e+00 
1.448609e+00 
1.450218e+00 
1.452338e+00 
1.454966e+00 
1.458101e+00 
1.461739e+00 
1.465878e+00 
1.470515e+00 
1.475646e+00 
1.481267e+00 
1.487373e+00 
1.493961e+00 
1.501025e+00 
1.508560e+00 
1.516560e+00 
1.525021e+00 
1.533936e+00 
1.543299e+00 
1.553105e+00 
1.563346e+00 
1.574016e+00 
1.585108e+00 
1.596617e+00 
1.608534e+00 
1.620854e+00 
1.633568e+00 
1.646671e+00 
1.660154e+00 
1.674012e+00 
1.688236e+00 
1.702820e+00 
1.717757e+00 
1.733039e+00 
1.748659e+00 
1.764612e+00 
1.780889e+00 
1.797483e+00 
1.814389e+00 
1.831599e+00 
1.849106e+00 
1.866904e+00 
1.884987e+00 
1.903348e+00 
1.921981e+00 
1.940880e+00 
2.669673e+00 
2.644534e+00 
2.619512e+00 
2.594609e+00 
2.569830e+00 
2.545177e+00 
2.520652e+00 
2.496260e+00 
2.472004e+00 
2.447886e+00 
2.423911e+00 
2.400082e+00 
2.376403e+00 
2.352877e+00 
2.329509e+00 
2.306302e+00 
2.283260e+00 
2.260388e+00 
2.237690e+00 
2.215171e+00 
2.192834e+00 
2.170685e+00 
2.148728e+00 
2.126969e+00 
2.105412e+00 
2.084063e+00 
2.062926e+00 
2.042007e+00 
2.021312e+00 
2.000846e+00 
1.980616e+00 
1.960626e+00 
1.940883e+00 
1.921393e+00 
1.902163e+00 
1.883198e+00 
1.864506e+00 
1.846093e+00 
1.827965e+00 
1.810129e+00 
1.792593e+00 
1.775364e+00 
1.758448e+00 
1.741853e+00 
1.725586e+00 
1.709655e+00 
1.694067e+00 
1.678829e+00 
1.663949e+00 
1.649435e+00 
1.635295e+00 
1.621535e+00 
1.608164e+00 
1.595189e+00 
1.582618e+00 
1.570458e+00 
1.558717e+00 
1.547402e+00 
1.536520e+00 
1.526079e+00 
1.516086e+00 
1.506547e+00 
1.497469e+00 
1.488859e+00 
1.480723e+00 
1.473067e+00 
1.465897e+00 
1.459218e+00 
1.453036e+00 
1.447355e+00 
1.442179e+00 
1.437508e+00 
1.433307e+00 
1.429399e+00 
1.425871e+00 
1.422827e+00 
1.420296e+00 
1.418282e+00 
1.416789e+00 
1.415817e+00 
1.415367e+00 
1.415439e+00 
1.416033e+00 
1.417149e+00 
1.418785e+00 
1.420940e+00 
1.423612e+00 
1.426799e+00 
1.430497e+00 
1.434704e+00 
1.439416e+00 
1.444630e+00 
1.450342e+00 
1.456546e+00 
1.463238e+00 
1.470413e+00 
1.478065e+00 
1.486190e+00 
1.494780e+00 
1.503831e+00 
1.513335e+00 
1.523287e+00 
1.533679e+00 
1.544505e+00 
1.555757e+00 
1.567430e+00 
1.579516e+00 
1.592007e+00 
1.604897e+00 
1.618178e+00 
1.631842e+00 
1.645884e+00 
1.660294e+00 
1.675066e+00 
1.690193e+00 
1.705667e+00 
1.721482e+00 
1.737629e+00 
1.754101e+00 
1.770893e+00 
1.787996e+00 
1.805404e+00 
1.823110e+00 
1.841107e+00 
1.859389e+00 
1.877949e+00 
1.896780e+00 
1.915877e+00 
2.650884e+00 
2.625592e+00 
2.600414e+00 
2.575355e+00 
2.550417e+00 
2.525604e+00 
2.500917e+00 
2.476361e+00 
2.451938e+00 
2.427653e+00 
2.403509e+00 
2.379508e+00 
2.355656e+00 
2.331955e+00 
2.308410e+00 
2.285024e+00 
2.261802e+00 
2.238748e+00 
2.215866e+00 
2.193161e+00 
2.170638e+00 
2.148300e+00 
2.126153e+00 
2.104202e+00 
2.082452e+00 
2.060908e+00 
2.039575e+00 
2.018459e+00 
1.997566e+00 
1.976901e+00 
1.956469e+00 
1.936278e+00 
1.916332e+00 
1.896639e+00 
1.877205e+00 
1.858036e+00 
1.839139e+00 
1.820521e+00 
1.802188e+00 
1.784147e+00 
1.766406e+00 
1.748972e+00 
1.731852e+00 
1.715054e+00 
1.698585e+00 
1.682453e+00 
1.666665e+00 
1.651229e+00 
1.636153e+00 
1.621445e+00 
1.607112e+00 
1.593163e+00 
1.579606e+00 
1.566448e+00 
1.553697e+00 
1.541360e+00 
1.529447e+00 
1.517964e+00 
1.506919e+00 
1.496320e+00 
1.486173e+00 
1.476486e+00 
1.467266e+00 
1.458520e+00 
1.450255e+00 
1.442475e+00 
1.435189e+00 
1.428401e+00 
1.422116e+00 
1.416341e+00 
1.411079e+00 
1.406331e+00 
1.402066e+00 
1.398131e+00 
1.394552e+00 
1.391460e+00 
1.388887e+00 
1.386840e+00 
1.385321e+00 
1.384333e+00 
1.383876e+00 
1.383950e+00 
1.384555e+00 
1.385690e+00 
1.387354e+00 
1.389546e+00 
1.392263e+00 
1.395503e+00 
1.399263e+00 
1.403540e+00 
1.408331e+00 
1.413631e+00 
1.419435e+00 
1.425740e+00 
1.432540e+00 
1.439829e+00 
1.447603e+00 
1.455855e+00 
1.464579e+00 
1.473769e+00 
1.483419e+00 
1.493521e+00 
1.504068e+00 
1.515054e+00 
1.526471e+00 
1.538313e+00 
1.550571e+00 
1.563239e+00 
1.576308e+00 
1.589772e+00 
1.603622e+00 
1.617851e+00 
1.632452e+00 
1.647417e+00 
1.662738e+00 
1.678408e+00 
1.694420e+00 
1.710766e+00 
1.727438e+00 
1.744430e+00 
1.761735e+00 
1.779344e+00 
1.797252e+00 
1.815451e+00 
1.833935e+00 
1.852697e+00 
1.871731e+00 
1.891029e+00 
2.632302e+00 
2.606856e+00 
2.581524e+00 
2.556307e+00 
2.531210e+00 
2.506236e+00 
2.481387e+00 
2.456666e+00 
2.432077e+00 
2.407623e+00 
2.383308e+00 
2.359136e+00 
2.335109e+00 
2.311233e+00 
2.287510e+00 
2.263944e+00 
2.240541e+00 
2.217304e+00 
2.194237e+00 
2.171345e+00 
2.148633e+00 
2.126105e+00 
2.103767e+00 
2.081622e+00 
2.059677e+00 
2.037936e+00 
2.016405e+00 
1.995090e+00 
1.973996e+00 
1.953128e+00 
1.932494e+00 
1.912098e+00 
1.891947e+00 
1.872048e+00 
1.852407e+00 
1.833031e+00 
1.813926e+00 
1.795099e+00 
1.776557e+00 
1.758308e+00 
1.740358e+00 
1.722716e+00 
1.705388e+00 
1.688383e+00 
1.671708e+00 
1.655370e+00 
1.639378e+00 
1.623740e+00 
1.608463e+00 
1.593556e+00 
1.579027e+00 
1.564884e+00 
1.551136e+00 
1.537790e+00 
1.524854e+00 
1.512337e+00 
1.500247e+00 
1.488591e+00 
1.477378e+00 
1.466616e+00 
1.456311e+00 
1.446472e+00 
1.437106e+00 
1.428220e+00 
1.419820e+00 
1.411914e+00 
1.404507e+00 
1.397606e+00 
1.391217e+00 
1.385344e+00 
1.379993e+00 
1.375164e+00 
1.370833e+00 
1.366870e+00 
1.363240e+00 
1.360097e+00 
1.357480e+00 
1.355399e+00 
1.353855e+00 
1.352851e+00 
1.352386e+00 
1.352462e+00 
1.353078e+00 
1.354233e+00 
1.355926e+00 
1.358155e+00 
1.360919e+00 
1.364215e+00 
1.368039e+00 
1.372388e+00 
1.377259e+00 
1.382647e+00 
1.388548e+00 
1.394957e+00 
1.401868e+00 
1.409276e+00 
1.417175e+00 
1.425558e+00 
1.434420e+00 
1.443754e+00 
1.453553e+00 
1.463809e+00 
1.474516e+00 
1.485667e+00 
1.497253e+00 
1.509268e+00 
1.521704e+00 
1.534552e+00 
1.547805e+00 
1.561456e+00 
1.575496e+00 
1.589918e+00 
1.604714e+00 
1.619875e+00 
1.635395e+00 
1.651266e+00 
1.667479e+00 
1.684027e+00 
1.700904e+00 
1.718100e+00 
1.735609e+00 
1.753424e+00 
1.771538e+00 
1.789943e+00 
1.808632e+00 
1.827599e+00 
1.846837e+00 
1.866340e+00 
2.613930e+00 
2.588331e+00 
2.562843e+00 
2.537470e+00 
2.512213e+00 
2.487078e+00 
2.462065e+00 
2.437179e+00 
2.412424e+00 
2.387801e+00 
2.363315e+00 
2.338970e+00 
2.314769e+00 
2.290715e+00 
2.266814e+00 
2.243068e+00 
2.219482e+00 
2.196060e+00 
2.172807e+00 
2.149727e+00 
2.126825e+00 
2.104106e+00 
2.081573e+00 
2.059234e+00 
2.037091e+00 
2.015152e+00 
1.993421e+00 
1.971904e+00 
1.950607e+00 
1.929535e+00 
1.908695e+00 
1.888092e+00 
1.867733e+00 
1.847625e+00 
1.827774e+00 
1.808187e+00 
1.788871e+00 
1.769832e+00 
1.751078e+00 
1.732617e+00 
1.714455e+00 
1.696601e+00 
1.679061e+00 
1.661844e+00 
1.644958e+00 
1.628411e+00 
1.612211e+00 
1.596366e+00 
1.580884e+00 
1.565774e+00 
1.551044e+00 
1.536702e+00 
1.522758e+00 
1.509219e+00 
1.496094e+00 
1.483391e+00 
1.471119e+00 
1.459286e+00 
1.447900e+00 
1.436970e+00 
1.426503e+00 
1.416507e+00 
1.406990e+00 
1.397959e+00 
1.389421e+00 
1.381383e+00 
1.373853e+00 
1.366836e+00 
1.360338e+00 
1.354364e+00 
1.348921e+00 
1.344009e+00 
1.339610e+00 
1.335618e+00 
1.331934e+00 
1.328738e+00 
1.326077e+00 
1.323960e+00 
1.322390e+00 
1.321368e+00 
1.320896e+00 
1.320974e+00 
1.321601e+00 
1.322777e+00 
1.324500e+00 
1.326768e+00 
1.329581e+00 
1.332933e+00 
1.336824e+00 
1.341248e+00 
1.346202e+00 
1.351682e+00 
1.357682e+00 
1.364198e+00 
1.371224e+00 
1.378754e+00 
1.386782e+00 
1.395301e+00 
1.404305e+00 
1.413787e+00 
1.423739e+00 
1.434155e+00 
1.445026e+00 
1.456346e+00 
1.468106e+00 
1.480299e+00 
1.492916e+00 
1.505950e+00 
1.519392e+00 
1.533235e+00 
1.547469e+00 
1.562088e+00 
1.577083e+00 
1.592446e+00 
1.608169e+00 
1.624244e+00 
1.640663e+00 
1.657418e+00 
1.674502e+00 
1.691907e+00 
1.709625e+00 
1.727649e+00 
1.745972e+00 
1.764586e+00 
1.783484e+00 
1.802660e+00 
1.822106e+00 
1.841816e+00 
2.595773e+00 
2.570020e+00 
2.544377e+00 
2.518846e+00 
2.493430e+00 
2.468133e+00 
2.442957e+00 
2.417906e+00 
2.392983e+00 
2.368191e+00 
2.343534e+00 
2.319015e+00 
2.294638e+00 
2.270407e+00 
2.246326e+00 
2.222398e+00 
2.198629e+00 
2.175022e+00 
2.151581e+00 
2.128312e+00 
2.105219e+00 
2.082306e+00 
2.059578e+00 
2.037042e+00 
2.014701e+00 
1.992561e+00 
1.970628e+00 
1.948907e+00 
1.927404e+00 
1.906126e+00 
1.885077e+00 
1.864265e+00 
1.843696e+00 
1.823376e+00 
1.803312e+00 
1.783511e+00 
1.763980e+00 
1.744726e+00 
1.725757e+00 
1.707079e+00 
1.688702e+00 
1.670631e+00 
1.652876e+00 
1.635444e+00 
1.618343e+00 
1.601582e+00 
1.585168e+00 
1.569112e+00 
1.553420e+00 
1.538102e+00 
1.523166e+00 
1.508621e+00 
1.494475e+00 
1.480739e+00 
1.467419e+00 
1.454526e+00 
1.442067e+00 
1.430052e+00 
1.418488e+00 
1.407385e+00 
1.396751e+00 
1.386593e+00 
1.376920e+00 
1.367740e+00 
1.359060e+00 
1.350887e+00 
1.343228e+00 
1.336091e+00 
1.329480e+00 
1.323403e+00 
1.317864e+00 
1.312867e+00 
1.308397e+00 
1.304375e+00 
1.300634e+00 
1.297385e+00 
1.294677e+00 
1.292523e+00 
1.290925e+00 
1.289886e+00 
1.289406e+00 
1.289486e+00 
1.290125e+00 
1.291322e+00 
1.293076e+00 
1.295386e+00 
1.298248e+00 
1.301660e+00 
1.305619e+00 
1.310121e+00 
1.315161e+00 
1.320735e+00 
1.326839e+00 
1.333465e+00 
1.340610e+00 
1.348265e+00 
1.356426e+00 
1.365085e+00 
1.374236e+00 
1.383870e+00 
1.393981e+00 
1.404560e+00 
1.415601e+00 
1.427095e+00 
1.439033e+00 
1.451409e+00 
1.464213e+00 
1.477437e+00 
1.491073e+00 
1.505112e+00 
1.519546e+00 
1.534366e+00 
1.549565e+00 
1.565134e+00 
1.581064e+00 
1.597348e+00 
1.613977e+00 
1.630944e+00 
1.648239e+00 
1.665856e+00 
1.683787e+00 
1.702024e+00 
1.720559e+00 
1.739386e+00 
1.758496e+00 
1.777884e+00 
1.797541e+00 
1.817461e+00 
2.577833e+00 
2.551926e+00 
2.526127e+00 
2.500439e+00 
2.474864e+00 
2.449405e+00 
2.424065e+00 
2.398848e+00 
2.373757e+00 
2.348795e+00 
2.323966e+00 
2.299273e+00 
2.274720e+00 
2.250311e+00 
2.226049e+00 
2.201939e+00 
2.177985e+00 
2.154191e+00 
2.130562e+00 
2.107102e+00 
2.083815e+00 
2.060707e+00 
2.037783e+00 
2.015047e+00 
1.992506e+00 
1.970163e+00 
1.948026e+00 
1.926099e+00 
1.904388e+00 
1.882900e+00 
1.861640e+00 
1.840615e+00 
1.819832e+00 
1.799297e+00 
1.779016e+00 
1.758998e+00 
1.739249e+00 
1.719775e+00 
1.700586e+00 
1.681688e+00 
1.663090e+00 
1.644798e+00 
1.626822e+00 
1.609169e+00 
1.591848e+00 
1.574868e+00 
1.558236e+00 
1.541962e+00 
1.526054e+00 
1.510522e+00 
1.495374e+00 
1.480619e+00 
1.466266e+00 
1.452325e+00 
1.438804e+00 
1.425714e+00 
1.413061e+00 
1.400857e+00 
1.389109e+00 
1.377826e+00 
1.367017e+00 
1.356691e+00 
1.346856e+00 
1.337520e+00 
1.328691e+00 
1.320377e+00 
1.312584e+00 
1.305321e+00 
1.298593e+00 
1.292407e+00 
1.286768e+00 
1.281679e+00 
1.277133e+00 
1.273054e+00 
1.269247e+00 
1.265936e+00 
1.263174e+00 
1.260976e+00 
1.259343e+00 
1.258280e+00 
1.257785e+00 
1.257860e+00 
1.258505e+00 
1.259718e+00 
1.261498e+00 
1.263843e+00 
1.266751e+00 
1.270219e+00 
1.274244e+00 
1.278821e+00 
1.283946e+00 
1.289614e+00 
1.295819e+00 
1.302557e+00 
1.309821e+00 
1.317605e+00 
1.325901e+00 
1.334703e+00 
1.344004e+00 
1.353795e+00 
1.364069e+00 
1.374818e+00 
1.386034e+00 
1.397708e+00 
1.409833e+00 
1.422398e+00 
1.435397e+00 
1.448820e+00 
1.462657e+00 
1.476902e+00 
1.491545e+00 
1.506576e+00 
1.521988e+00 
1.537772e+00 
1.553920e+00 
1.570422e+00 
1.587271e+00 
1.604457e+00 
1.621974e+00 
1.639812e+00 
1.657965e+00 
1.676423e+00 
1.695180e+00 
1.714228e+00 
1.733559e+00 
1.753166e+00 
1.773043e+00 
1.793181e+00 
2.560097e+00 
2.534036e+00 
2.508080e+00 
2.482233e+00 
2.456497e+00 
2.430876e+00 
2.405371e+00 
2.379987e+00 
2.354726e+00 
2.329593e+00 
2.304590e+00 
2.279721e+00 
2.254989e+00 
2.230399e+00 
2.205955e+00 
2.181660e+00 
2.157518e+00 
2.133534e+00 
2.109713e+00 
2.086059e+00 
2.062576e+00 
2.039269e+00 
2.016144e+00 
1.993205e+00 
1.970458e+00 
1.947908e+00 
1.925561e+00 
1.903422e+00 
1.881498e+00 
1.859794e+00 
1.838317e+00 
1.817073e+00 
1.796069e+00 
1.775311e+00 
1.754807e+00 
1.734563e+00 
1.714587e+00 
1.694886e+00 
1.675468e+00 
1.656340e+00 
1.637511e+00 
1.618989e+00 
1.600782e+00 
1.582898e+00 
1.565346e+00 
1.548134e+00 
1.531272e+00 
1.514769e+00 
1.498633e+00 
1.482874e+00 
1.467501e+00 
1.452523e+00 
1.437950e+00 
1.423791e+00 
1.410056e+00 
1.396754e+00 
1.383894e+00 
1.371487e+00 
1.359541e+00 
1.348065e+00 
1.337069e+00 
1.326561e+00 
1.316551e+00 
1.307047e+00 
1.298057e+00 
1.289589e+00 
1.281652e+00 
1.274251e+00 
1.267395e+00 
1.261091e+00 
1.255342e+00 
1.250149e+00 
1.245503e+00 
1.241283e+00 
1.237380e+00 
1.233983e+00 
1.231144e+00 
1.228878e+00 
1.227188e+00 
1.226078e+00 
1.225547e+00 
1.225597e+00 
1.226227e+00 
1.227437e+00 
1.229225e+00 
1.231589e+00 
1.234527e+00 
1.238036e+00 
1.242112e+00 
1.246751e+00 
1.251949e+00 
1.257701e+00 
1.264000e+00 
1.270842e+00 
1.278220e+00 
1.286126e+00 
1.294555e+00 
1.303498e+00 
1.312948e+00 
1.322897e+00 
1.333337e+00 
1.344259e+00 
1.355655e+00 
1.367516e+00 
1.379834e+00 
1.392598e+00 
1.405801e+00 
1.419433e+00 
1.433485e+00 
1.447948e+00 
1.462812e+00 
1.478069e+00 
1.493710e+00 
1.509725e+00 
1.526106e+00 
1.542844e+00 
1.559930e+00 
1.577355e+00 
1.595112e+00 
1.613190e+00 
1.631584e+00 
1.650283e+00 
1.669281e+00 
1.688570e+00 
1.708141e+00 
1.727988e+00 
1.748103e+00 
1.768479e+00 
2.542455e+00 
2.516235e+00 
2.490119e+00 
2.464108e+00 
2.438207e+00 
2.412417e+00 
2.386742e+00 
2.361184e+00 
2.335748e+00 
2.310437e+00 
2.285253e+00 
2.260201e+00 
2.235284e+00 
2.210506e+00 
2.185871e+00 