# vtk DataFile Version 2.0 
Quadtree Mesh 
ASCII 
DATASET UNSTRUCTURED_GRID 
POINTS 16384 double 
-1.000000e+00 -1.000000e+00 0.000000e+00
-9.842520e-01 -1.000000e+00 0.000000e+00
-9.685039e-01 -1.000000e+00 0.000000e+00
-9.527559e-01 -1.000000e+00 0.000000e+00
-9.370079e-01 -1.000000e+00 0.000000e+00
-9.212598e-01 -1.000000e+00 0.000000e+00
-9.055118e-01 -1.000000e+00 0.000000e+00
-8.897638e-01 -1.000000e+00 0.000000e+00
-8.740157e-01 -1.000000e+00 0.000000e+00
-8.582677e-01 -1.000000e+00 0.000000e+00
-8.425197e-01 -1.000000e+00 0.000000e+00
-8.267717e-01 -1.000000e+00 0.000000e+00
-8.110236e-01 -1.000000e+00 0.000000e+00
-7.952756e-01 -1.000000e+00 0.000000e+00
-7.795276e-01 -1.000000e+00 0.000000e+00
-7.637795e-01 -1.000000e+00 0.000000e+00
-7.480315e-01 -1.000000e+00 0.000000e+00
-7.322835e-01 -1.000000e+00 0.000000e+00
-7.165354e-01 -1.000000e+00 0.000000e+00
-7.007874e-01 -1.000000e+00 0.000000e+00
-6.850394e-01 -1.000000e+00 0.000000e+00
-6.692913e-01 -1.000000e+00 0.000000e+00
-6.535433e-01 -1.000000e+00 0.000000e+00
-6.377953e-01 -1.000000e+00 0.000000e+00
-6.220472e-01 -1.000000e+00 0.000000e+00
-6.062992e-01 -1.000000e+00 0.000000e+00
-5.905512e-01 -1.000000e+00 0.000000e+00
-5.748031e-01 -1.000000e+00 0.000000e+00
-5.590551e-01 -1.000000e+00 0.000000e+00
-5.433071e-01 -1.000000e+00 0.000000e+00
-5.275591e-01 -1.000000e+00 0.000000e+00
-5.118110e-01 -1.000000e+00 0.000000e+00
-4.960630e-01 -1.000000e+00 0.000000e+00
-4.803150e-01 -1.000000e+00 0.000000e+00
-4.645669e-01 -1.000000e+00 0.000000e+00
-4.488189e-01 -1.000000e+00 0.000000e+00
-4.330709e-01 -1.000000e+00 0.000000e+00
-4.173228e-01 -1.000000e+00 0.000000e+00
-4.015748e-01 -1.000000e+00 0.000000e+00
-3.858268e-01 -1.000000e+00 0.000000e+00
-3.700787e-01 -1.000000e+00 0.000000e+00
-3.543307e-01 -1.000000e+00 0.000000e+00
-3.385827e-01 -1.000000e+00 0.000000e+00
-3.228346e-01 -1.000000e+00 0.000000e+00
-3.070866e-01 -1.000000e+00 0.000000e+00
-2.913386e-01 -1.000000e+00 0.000000e+00
-2.755906e-01 -1.000000e+00 0.000000e+00
-2.598425e-01 -1.000000e+00 0.000000e+00
-2.440945e-01 -1.000000e+00 0.000000e+00
-2.283465e-01 -1.000000e+00 0.000000e+00
-2.125984e-01 -1.000000e+00 0.000000e+00
-1.968504e-01 -1.000000e+00 0.000000e+00
-1.811024e-01 -1.000000e+00 0.000000e+00
-1.653543e-01 -1.000000e+00 0.000000e+00
-1.496063e-01 -1.000000e+00 0.000000e+00
-1.338583e-01 -1.000000e+00 0.000000e+00
-1.181102e-01 -1.000000e+00 0.000000e+00
-1.023622e-01 -1.000000e+00 0.000000e+00
-8.661417e-02 -1.000000e+00 0.000000e+00
-7.086614e-02 -1.000000e+00 0.000000e+00
-5.511811e-02 -1.000000e+00 0.000000e+00
-3.937008e-02 -1.000000e+00 0.000000e+00
-2.362205e-02 -1.000000e+00 0.000000e+00
-7.874016e-03 -1.000000e+00 0.000000e+00
7.874016e-03 -1.000000e+00 0.000000e+00
2.362205e-02 -1.000000e+00 0.000000e+00
3.937008e-02 -1.000000e+00 0.000000e+00
5.511811e-02 -1.000000e+00 0.000000e+00
7.086614e-02 -1.000000e+00 0.000000e+00
8.661417e-02 -1.000000e+00 0.000000e+00
1.023622e-01 -1.000000e+00 0.000000e+00
1.181102e-01 -1.000000e+00 0.000000e+00
1.338583e-01 -1.000000e+00 0.000000e+00
1.496063e-01 -1.000000e+00 0.000000e+00
1.653543e-01 -1.000000e+00 0.000000e+00
1.811024e-01 -1.000000e+00 0.000000e+00
1.968504e-01 -1.000000e+00 0.000000e+00
2.125984e-01 -1.000000e+00 0.000000e+00
2.283465e-01 -1.000000e+00 0.000000e+00
2.440945e-01 -1.000000e+00 0.000000e+00
2.598425e-01 -1.000000e+00 0.000000e+00
2.755906e-01 -1.000000e+00 0.000000e+00
2.913386e-01 -1.000000e+00 0.000000e+00
3.070866e-01 -1.000000e+00 0.000000e+00
3.228346e-01 -1.000000e+00 0.000000e+00
3.385827e-01 -1.000000e+00 0.000000e+00
3.543307e-01 -1.000000e+00 0.000000e+00
3.700787e-01 -1.000000e+00 0.000000e+00
3.858268e-01 -1.000000e+00 0.000000e+00
4.015748e-01 -1.000000e+00 0.000000e+00
4.173228e-01 -1.000000e+00 0.000000e+00
4.330709e-01 -1.000000e+00 0.000000e+00
4.488189e-01 -1.000000e+00 0.000000e+00
4.645669e-01 -1.000000e+00 0.000000e+00
4.803150e-01 -1.000000e+00 0.000000e+00
4.960630e-01 -1.000000e+00 0.000000e+00
5.118110e-01 -1.000000e+00 0.000000e+00
5.275591e-01 -1.000000e+00 0.000000e+00
5.433071e-01 -1.000000e+00 0.000000e+00
5.590551e-01 -1.000000e+00 0.000000e+00
5.748031e-01 -1.000000e+00 0.000000e+00
5.905512e-01 -1.000000e+00 0.000000e+00
6.062992e-01 -1.000000e+00 0.000000e+00
6.220472e-01 -1.000000e+00 0.000000e+00
6.377953e-01 -1.000000e+00 0.000000e+00
6.535433e-01 -1.000000e+00 0.000000e+00
6.692913e-01 -1.000000e+00 0.000000e+00
6.850394e-01 -1.000000e+00 0.000000e+00
7.007874e-01 -1.000000e+00 0.000000e+00
7.165354e-01 -1.000000e+00 0.000000e+00
7.322835e-01 -1.000000e+00 0.000000e+00
7.480315e-01 -1.000000e+00 0.000000e+00
7.637795e-01 -1.000000e+00 0.000000e+00
7.795276e-01 -1.000000e+00 0.000000e+00
7.952756e-01 -1.000000e+00 0.000000e+00
8.110236e-01 -1.000000e+00 0.000000e+00
8.267717e-01 -1.000000e+00 0.000000e+00
8.425197e-01 -1.000000e+00 0.000000e+00
8.582677e-01 -1.000000e+00 0.000000e+00
8.740157e-01 -1.000000e+00 0.000000e+00
8.897638e-01 -1.000000e+00 0.000000e+00
9.055118e-01 -1.000000e+00 0.000000e+00
9.212598e-01 -1.000000e+00 0.000000e+00
9.370079e-01 -1.000000e+00 0.000000e+00
9.527559e-01 -1.000000e+00 0.000000e+00
9.685039e-01 -1.000000e+00 0.000000e+00
9.842520e-01 -1.000000e+00 0.000000e+00
1.000000e+00 -1.000000e+00 0.000000e+00
-1.000000e+00 -9.842520e-01 0.000000e+00
-9.842520e-01 -9.842520e-01 0.000000e+00
-9.685039e-01 -9.842520e-01 0.000000e+00
-9.527559e-01 -9.842520e-01 0.000000e+00
-9.370079e-01 -9.842520e-01 0.000000e+00
-9.212598e-01 -9.842520e-01 0.000000e+00
-9.055118e-01 -9.842520e-01 0.000000e+00
-8.897638e-01 -9.842520e-01 0.000000e+00
-8.740157e-01 -9.842520e-01 0.000000e+00
-8.582677e-01 -9.842520e-01 0.000000e+00
-8.425197e-01 -9.842520e-01 0.000000e+00
-8.267717e-01 -9.842520e-01 0.000000e+00
-8.110236e-01 -9.842520e-01 0.000000e+00
-7.952756e-01 -9.842520e-01 0.000000e+00
-7.795276e-01 -9.842520e-01 0.000000e+00
-7.637795e-01 -9.842520e-01 0.000000e+00
-7.480315e-01 -9.842520e-01 0.000000e+00
-7.322835e-01 -9.842520e-01 0.000000e+00
-7.165354e-01 -9.842520e-01 0.000000e+00
-7.007874e-01 -9.842520e-01 0.000000e+00
-6.850394e-01 -9.842520e-01 0.000000e+00
-6.692913e-01 -9.842520e-01 0.000000e+00
-6.535433e-01 -9.842520e-01 0.000000e+00
-6.377953e-01 -9.842520e-01 0.000000e+00
-6.220472e-01 -9.842520e-01 0.000000e+00
-6.062992e-01 -9.842520e-01 0.000000e+00
-5.905512e-01 -9.842520e-01 0.000000e+00
-5.748031e-01 -9.842520e-01 0.000000e+00
-5.590551e-01 -9.842520e-01 0.000000e+00
-5.433071e-01 -9.842520e-01 0.000000e+00
-5.275591e-01 -9.842520e-01 0.000000e+00
-5.118110e-01 -9.842520e-01 0.000000e+00
-4.960630e-01 -9.842520e-01 0.000000e+00
-4.803150e-01 -9.842520e-01 0.000000e+00
-4.645669e-01 -9.842520e-01 0.000000e+00
-4.488189e-01 -9.842520e-01 0.000000e+00
-4.330709e-01 -9.842520e-01 0.000000e+00
-4.173228e-01 -9.842520e-01 0.000000e+00
-4.015748e-01 -9.842520e-01 0.000000e+00
-3.858268e-01 -9.842520e-01 0.000000e+00
-3.700787e-01 -9.842520e-01 0.000000e+00
-3.543307e-01 -9.842520e-01 0.000000e+00
-3.385827e-01 -9.842520e-01 0.000000e+00
-3.228346e-01 -9.842520e-01 0.000000e+00
-3.070866e-01 -9.842520e-01 0.000000e+00
-2.913386e-01 -9.842520e-01 0.000000e+00
-2.755906e-01 -9.842520e-01 0.000000e+00
-2.598425e-01 -9.842520e-01 0.000000e+00
-2.440945e-01 -9.842520e-01 0.000000e+00
-2.283465e-01 -9.842520e-01 0.000000e+00
-2.125984e-01 -9.842520e-01 0.000000e+00
-1.968504e-01 -9.842520e-01 0.000000e+00
-1.811024e-01 -9.842520e-01 0.000000e+00
-1.653543e-01 -9.842520e-01 0.000000e+00
-1.496063e-01 -9.842520e-01 0.000000e+00
-1.338583e-01 -9.842520e-01 0.000000e+00
-1.181102e-01 -9.842520e-01 0.000000e+00
-1.023622e-01 -9.842520e-01 0.000000e+00
-8.661417e-02 -9.842520e-01 0.000000e+00
-7.086614e-02 -9.842520e-01 0.000000e+00
-5.511811e-02 -9.842520e-01 0.000000e+00
-3.937008e-02 -9.842520e-01 0.000000e+00
-2.362205e-02 -9.842520e-01 0.000000e+00
-7.874016e-03 -9.842520e-01 0.000000e+00
7.874016e-03 -9.842520e-01 0.000000e+00
2.362205e-02 -9.842520e-01 0.000000e+00
3.937008e-02 -9.842520e-01 0.000000e+00
5.511811e-02 -9.842520e-01 0.000000e+00
7.086614e-02 -9.842520e-01 0.000000e+00
8.661417e-02 -9.842520e-01 0.000000e+00
1.023622e-01 -9.842520e-01 0.000000e+00
1.181102e-01 -9.842520e-01 0.000000e+00
1.338583e-01 -9.842520e-01 0.000000e+00
1.496063e-01 -9.842520e-01 0.000000e+00
1.653543e-01 -9.842520e-01 0.000000e+00
1.811024e-01 -9.842520e-01 0.000000e+00
1.968504e-01 -9.842520e-01 0.000000e+00
2.125984e-01 -9.842520e-01 0.000000e+00
2.283465e-01 -9.842520e-01 0.000000e+00
2.440945e-01 -9.842520e-01 0.000000e+00
2.598425e-01 -9.842520e-01 0.000000e+00
2.755906e-01 -9.842520e-01 0.000000e+00
2.913386e-01 -9.842520e-01 0.000000e+00
3.070866e-01 -9.842520e-01 0.000000e+00
3.228346e-01 -9.842520e-01 0.000000e+00
3.385827e-01 -9.842520e-01 0.000000e+00
3.543307e-01 -9.842520e-01 0.000000e+00
3.700787e-01 -9.842520e-01 0.000000e+00
3.858268e-01 -9.842520e-01 0.000000e+00
4.015748e-01 -9.842520e-01 0.000000e+00
4.173228e-01 -9.842520e-01 0.000000e+00
4.330709e-01 -9.842520e-01 0.000000e+00
4.488189e-01 -9.842520e-01 0.000000e+00
4.645669e-01 -9.842520e-01 0.000000e+00
4.803150e-01 -9.842520e-01 0.000000e+00
4.960630e-01 -9.842520e-01 0.000000e+00
5.118110e-01 -9.842520e-01 0.000000e+00
5.275591e-01 -9.842520e-01 0.000000e+00
5.433071e-01 -9.842520e-01 0.000000e+00
5.590551e-01 -9.842520e-01 0.000000e+00
5.748031e-01 -9.842520e-01 0.000000e+00
5.905512e-01 -9.842520e-01 0.000000e+00
6.062992e-01 -9.842520e-01 0.000000e+00
6.220472e-01 -9.842520e-01 0.000000e+00
6.377953e-01 -9.842520e-01 0.000000e+00
6.535433e-01 -9.842520e-01 0.000000e+00
6.692913e-01 -9.842520e-01 0.000000e+00
6.850394e-01 -9.842520e-01 0.000000e+00
7.007874e-01 -9.842520e-01 0.000000e+00
7.165354e-01 -9.842520e-01 0.000000e+00
7.322835e-01 -9.842520e-01 0.000000e+00
7.480315e-01 -9.842520e-01 0.000000e+00
7.637795e-01 -9.842520e-01 0.000000e+00
7.795276e-01 -9.842520e-01 0.000000e+00
7.952756e-01 -9.842520e-01 0.000000e+00
8.110236e-01 -9.842520e-01 0.000000e+00
[...]
POINT_DATA 16384 
SCALARS concentration double 1 
LOOKUP_TABLE default 
2.598314e+00 
2.573797e+00 
2.549404e+00 
2.525138e+00 
2.501001e+00 
2.476997e+00 
2.453128e+00 
2.429398e+00 
2.405810e+00 
2.382367e+00 
2.359074e+00 
2.335932e+00 
2.312946e+00 
2.290121e+00 
2.267458e+00 
2.244962e+00 
2.222638e+00 
2.200489e+00 
2.178519e+00 
2.156733e+00 
2.135134e+00 
2.113728e+00 
2.092519e+00 
2.071511e+00 
2.050709e+00 
2.030118e+00 
2.009743e+00 
1.989589e+00 
1.969662e+00 
1.949965e+00 
1.930505e+00 
1.911287e+00 
1.892316e+00 
1.873598e+00 
1.855140e+00 
1.836946e+00 
1.819022e+00 
1.801376e+00 
1.784011e+00 
1.766936e+00 
1.750156e+00 
1.733677e+00 
1.717506e+00 
1.701649e+00 
1.686113e+00 
1.670904e+00 
1.656029e+00 
1.641495e+00 
1.627309e+00 
1.613476e+00 
1.600005e+00 
1.586901e+00 
1.574171e+00 
1.561823e+00 
1.549862e+00 
1.538296e+00 
1.527130e+00 
1.516373e+00 
1.506029e+00 
1.496106e+00 
1.486609e+00 
1.477545e+00 
1.468920e+00 
1.460739e+00 
1.453007e+00 
1.445731e+00 
1.438915e+00 
1.432563e+00 
1.426677e+00 
1.421253e+00 
1.416274e+00 
1.411691e+00 
1.407393e+00 
1.403220e+00 
1.399106e+00 
1.395205e+00 
1.391643e+00 
1.388489e+00 
1.385780e+00 
1.383533e+00 
1.381754e+00 
1.380447e+00 
1.379614e+00 
1.379256e+00 
1.379374e+00 
1.379966e+00 
1.381033e+00 
1.382573e+00 
1.384585e+00 
1.387068e+00 
1.390020e+00 
1.393438e+00 
1.397321e+00 
1.401665e+00 
1.406467e+00 
1.411724e+00 
1.417433e+00 
1.423590e+00 
1.430191e+00 
1.437232e+00 
1.444708e+00 
1.452616e+00 
1.460949e+00 
1.469704e+00 
1.478875e+00 
1.488457e+00 
1.498445e+00 
1.508834e+00 
1.519618e+00 
1.530791e+00 
1.542347e+00 
1.554282e+00 
1.566589e+00 
1.579262e+00 
1.592295e+00 
1.605682e+00 
1.619418e+00 
1.633497e+00 
1.647911e+00 
1.662656e+00 
1.677726e+00 
1.693113e+00 
1.708813e+00 
1.724819e+00 
1.741126e+00 
1.757727e+00 
1.774616e+00 
1.791789e+00 
2.578720e+00 
2.554051e+00 
2.529503e+00 
2.505080e+00 
2.480785e+00 
2.456621e+00 
2.432590e+00 
2.408697e+00 
2.384943e+00 
2.361334e+00 
2.337871e+00 
2.314559e+00 
2.291401e+00 
2.268401e+00 
2.245562e+00 
2.222889e+00 
2.200385e+00 
2.178055e+00 
2.155902e+00 
2.133931e+00 
2.112146e+00 
2.090551e+00 
2.069152e+00 
2.047953e+00 
2.026958e+00 
2.006172e+00 
1.985601e+00 
1.965249e+00 
1.945122e+00 
1.925225e+00 
1.905563e+00 
1.886142e+00 
1.866967e+00 
1.848044e+00 
1.829380e+00 
1.810979e+00 
1.792848e+00 
1.774993e+00 
1.757421e+00 
1.740137e+00 
1.723149e+00 
1.706462e+00 
1.690083e+00 
1.674019e+00 
1.658276e+00 
1.642863e+00 
1.627784e+00 
1.613048e+00 
1.598661e+00 
1.584630e+00 
1.570963e+00 
1.557666e+00 
1.544746e+00 
1.532211e+00 
1.520067e+00 
1.508321e+00 
1.496981e+00 
1.486053e+00 
1.475544e+00 
1.465460e+00 
1.455808e+00 
1.446594e+00 
1.437825e+00 
1.429506e+00 
1.421644e+00 
1.414244e+00 
1.407310e+00 
1.400848e+00 
1.394858e+00 
1.389337e+00 
1.384266e+00 
1.379595e+00 
1.375216e+00 
1.370978e+00 
1.366802e+00 
1.362838e+00 
1.359209e+00 
1.355991e+00 
1.353222e+00 
1.350920e+00 
1.349095e+00 
1.347750e+00 
1.346887e+00 
1.346508e+00 
1.346612e+00 
1.347199e+00 
1.348268e+00 
1.349819e+00 
1.351849e+00 
1.354358e+00 
1.357343e+00 
1.360802e+00 
1.364732e+00 
1.369130e+00 
1.373994e+00 
1.379318e+00 
1.385101e+00 
1.391338e+00 
1.398025e+00 
1.405157e+00 
1.412730e+00 
1.420739e+00 
1.429179e+00 
1.438045e+00 
1.447333e+00 
1.457036e+00 
1.467149e+00 
1.477667e+00 
1.488584e+00 
1.499894e+00 
1.511592e+00 
1.523671e+00 
1.536125e+00 
1.548950e+00 
1.562138e+00 
1.575683e+00 
1.589580e+00 
1.603823e+00 
1.618405e+00 
1.633320e+00 
1.648562e+00 
1.664125e+00 
1.680002e+00 
1.696189e+00 
1.712679e+00 
1.729465e+00 
1.746542e+00 
1.763905e+00 
2.559288e+00 
2.534463e+00 
2.509757e+00 
2.485175e+00 
2.460718e+00 
2.436391e+00 
2.412195e+00 
2.388134e+00 
2.364211e+00 
2.340430e+00 
2.316794e+00 
2.293306e+00 
2.269971e+00 
2.246791e+00 
2.223771e+00 
2.200913e+00 
2.178224e+00 
2.155705e+00 
2.133362e+00 
2.111199e+00 
2.089220e+00 
2.067430e+00 
2.045832e+00 
2.024433e+00 
2.003236e+00 
1.982247e+00 
1.961470e+00 
1.940911e+00 
1.920575e+00 
1.900468e+00 
1.880594e+00 
1.860960e+00 
1.841572e+00 
1.822434e+00 
1.803553e+00 
1.784936e+00 
1.766588e+00 
1.748516e+00 
1.730726e+00 
1.713224e+00 
1.696018e+00 
1.679114e+00 
1.662519e+00 
1.646239e+00 
1.630283e+00 
1.614656e+00 
1.599367e+00 
1.584422e+00 
1.569829e+00 
1.555594e+00 
1.541725e+00 
1.528230e+00 
1.515116e+00 
1.502390e+00 
1.490060e+00 
1.478132e+00 
1.466614e+00 
1.455513e+00 
1.444836e+00 
1.434590e+00 
1.424782e+00 
1.415417e+00 
1.406504e+00 
1.398047e+00 
1.390054e+00 
1.382529e+00 
1.375478e+00 
1.368905e+00 
1.362812e+00 
1.357193e+00 
1.352031e+00 
1.347276e+00 
1.342832e+00 
1.338560e+00 
1.334353e+00 
1.330349e+00 
1.326672e+00 
1.323405e+00 
1.320589e+00 
1.318247e+00 
1.316389e+00 
1.315018e+00 
1.314139e+00 
1.313750e+00 
1.313854e+00 
1.314448e+00 
1.315532e+00 
1.317105e+00 
1.319166e+00 
1.321712e+00 
1.324741e+00 
1.328251e+00 
1.332238e+00 
1.336700e+00 
1.341634e+00 
1.347034e+00 
1.352899e+00 
1.359222e+00 
1.366001e+00 
1.373230e+00 
1.380904e+00 
1.389019e+00 
1.397570e+00 
1.406551e+00 
1.415957e+00 
1.425782e+00 
1.436021e+00 
1.446668e+00 
1.457717e+00 
1.469163e+00 
1.480998e+00 
1.493219e+00 
1.505817e+00 
1.518788e+00 
1.532124e+00 
1.545821e+00 
1.559872e+00 
1.574270e+00 
1.589009e+00 
1.604084e+00 
1.619488e+00 
1.635216e+00 
1.651259e+00 
1.667614e+00 
1.684274e+00 
1.701232e+00 
1.718483e+00 
1.736021e+00 
2.539979e+00 
2.514993e+00 
2.490126e+00 
2.465379e+00 
2.440756e+00 
2.416259e+00 
2.391892e+00 
2.367658e+00 
2.343560e+00 
2.319601e+00 
2.295784e+00 
2.272114e+00 
2.248594e+00 
2.225227e+00 
2.202017e+00 
2.178968e+00 
2.156084e+00 
2.133370e+00 
2.110828e+00 
2.088465e+00 
2.066283e+00 
2.044288e+00 
2.022483e+00 
2.000875e+00 
1.979468e+00 
1.958266e+00 
1.937276e+00 
1.916501e+00 
1.895948e+00 
1.875622e+00 
1.855529e+00 
1.835675e+00 
1.816065e+00 
1.796705e+00 
1.777602e+00 
1.758761e+00 
1.740191e+00 
1.721895e+00 
1.703883e+00 
1.686159e+00 
1.668732e+00 
1.651608e+00 
1.634794e+00 
1.618297e+00 
1.602125e+00 
1.586285e+00 
1.570785e+00 
1.555631e+00 
1.540831e+00 
1.526394e+00 
1.512326e+00 
1.498635e+00 
1.485329e+00 
1.472415e+00 
1.459901e+00 
1.447794e+00 
1.436102e+00 
1.424832e+00 
1.413991e+00 
1.403587e+00 
1.393625e+00 
1.384115e+00 
1.375061e+00 
1.366470e+00 
1.358349e+00 
1.350703e+00 
1.343538e+00 
1.336858e+00 
1.330664e+00 
1.324952e+00 
1.319705e+00 
1.314879e+00 
1.310392e+00 
1.306119e+00 
1.301923e+00 
1.297909e+00 
1.294206e+00 
1.290906e+00 
1.288059e+00 
1.285690e+00 
1.283813e+00 
1.282431e+00 
1.281547e+00 
1.281162e+00 
1.281277e+00 
1.281890e+00 
1.283000e+00 
1.284607e+00 
1.286708e+00 
1.289301e+00 
1.292384e+00 
1.295954e+00 
1.300008e+00 
1.304542e+00 
1.309553e+00 
1.315037e+00 
1.320990e+00 
1.327407e+00 
1.334284e+00 
1.341616e+00 
1.349398e+00 
1.357625e+00 
1.366291e+00 
1.375391e+00 
1.384920e+00 
1.394871e+00 
1.405238e+00 
1.416017e+00 
1.427200e+00 
1.438783e+00 
1.450758e+00 
1.463119e+00 
1.475861e+00 
1.488976e+00 
1.502460e+00 
1.516305e+00 
1.530505e+00 
1.545055e+00 
1.559947e+00 
1.575175e+00 
1.590734e+00 
1.606618e+00 
1.622819e+00 
1.639332e+00 
1.656151e+00 
1.673269e+00 
1.690682e+00 
1.708382e+00 
2.520727e+00 
2.495575e+00 
2.470539e+00 
2.445621e+00 
2.420825e+00 
2.396152e+00 
2.371607e+00 
2.347192e+00 
2.322911e+00 
2.298767e+00 
2.274763e+00 
2.250903e+00 
2.227190e+00 
2.203629e+00 
2.180222e+00 
2.156974e+00 
2.133890e+00 
2.110972e+00 
2.088225e+00 
2.065654e+00 
2.043263e+00 
2.021057e+00 
1.999041e+00 
1.977218e+00 
1.955595e+00 
1.934177e+00 
1.912968e+00 
1.891975e+00 
1.871202e+00 
1.850655e+00 
1.830341e+00 
1.810265e+00 
1.790432e+00 
1.770851e+00 
1.751526e+00 
1.732464e+00 
1.713672e+00 
1.695156e+00 
1.676924e+00 
1.658983e+00 
1.641339e+00 
1.623999e+00 
1.606972e+00 
1.590264e+00 
1.573883e+00 
1.557836e+00 
1.542131e+00 
1.526776e+00 
1.511778e+00 
1.497146e+00 
1.482886e+00 
1.469007e+00 
1.455517e+00 
1.442423e+00 
1.429733e+00 
1.417455e+00 
1.405596e+00 
1.394164e+00 
1.383166e+00 
1.372610e+00 
1.362502e+00 
1.352851e+00 
1.343662e+00 
1.334943e+00 
1.326699e+00 
1.318937e+00 
1.311662e+00 
1.304879e+00 
1.298588e+00 
1.292788e+00 
1.287465e+00 
1.282583e+00 
1.278071e+00 
1.273816e+00 
1.269670e+00 
1.265671e+00 
1.261957e+00 
1.258635e+00 
1.255767e+00 
1.253381e+00 
1.251493e+00 
1.250107e+00 
1.249227e+00 
1.248853e+00 
1.248986e+00 
1.249625e+00 
1.250768e+00 
1.252414e+00 
1.254561e+00 
1.257208e+00 
1.260350e+00 
1.263986e+00 
1.268111e+00 
1.272723e+00 
1.277818e+00 
1.283391e+00 
1.289438e+00 
1.295955e+00 
1.302936e+00 
1.310377e+00 
1.318272e+00 
1.326616e+00 
1.335403e+00 
1.344628e+00 
1.354285e+00 
1.364367e+00 
1.374869e+00 
1.385785e+00 
1.397108e+00 
1.408832e+00 
1.420951e+00 
1.433459e+00 
1.446348e+00 
1.459613e+00 
1.473246e+00 
1.487243e+00 
1.501596e+00 
1.516298e+00 
1.531345e+00 
1.546728e+00 
1.562442e+00 
1.578480e+00 
1.594837e+00 
1.611506e+00 
1.628481e+00 
1.645756e+00 
1.663324e+00 
1.681180e+00 
2.501447e+00 
2.476123e+00 
2.450912e+00 
2.425817e+00 
2.400841e+00 
2.375988e+00 
2.351259e+00 
2.326658e+00 
2.302189e+00 
2.277855e+00 
2.253659e+00 
2.229605e+00 
2.205696e+00 
2.181937e+00 
2.158331e+00 
2.134882e+00 
2.111594e+00 
2.088471e+00 
2.065518e+00 
2.042740e+00 
2.020140e+00 
1.997724e+00 
1.975497e+00 
1.953462e+00 
1.931627e+00 
1.909995e+00 
1.888572e+00 
1.867364e+00 
1.846377e+00 
1.825616e+00 
1.805087e+00 
1.784796e+00 
1.764750e+00 
1.744954e+00 
1.725416e+00 
1.706142e+00 
1.687139e+00 
1.668414e+00 
1.649973e+00 
1.631824e+00 
1.613974e+00 
1.596430e+00 
1.579200e+00 
1.562292e+00 
1.545713e+00 
1.529470e+00 
1.513572e+00 
1.498026e+00 
1.482840e+00 
1.468022e+00 
1.453581e+00 
1.439523e+00 
1.425857e+00 
1.412592e+00 
1.399733e+00 
1.387291e+00 
1.375272e+00 
1.363684e+00 
1.352535e+00 
1.341833e+00 
1.331584e+00 
1.321796e+00 
1.312476e+00 
1.303631e+00 
1.295268e+00 
1.287392e+00 
1.280010e+00 
1.273125e+00 
1.266741e+00 
1.260857e+00 
1.255463e+00 
1.250531e+00 
1.246003e+00 
1.241773e+00 
1.237691e+00 
1.233715e+00 
1.229997e+00 
1.226658e+00 
1.223771e+00 
1.221371e+00 
1.219474e+00 
1.218087e+00 
1.217213e+00 
1.216852e+00 
1.217005e+00 
1.217671e+00 
1.218849e+00 
1.220537e+00 
1.222733e+00 
1.225434e+00 
1.228639e+00 
1.232343e+00 
1.236544e+00 
1.241237e+00 
1.246419e+00 
1.252085e+00 
1.258230e+00 
1.264851e+00 
1.271941e+00 
1.279495e+00 
1.287509e+00 
1.295976e+00 
1.304890e+00 
1.314246e+00 
1.324037e+00 
1.334258e+00 
1.344901e+00 
1.355961e+00 
1.367431e+00 
1.379304e+00 
1.391574e+00 
1.404235e+00 
1.417279e+00 
1.430701e+00 
1.444492e+00 
1.458648e+00 
1.473160e+00 
1.488023e+00 
1.503230e+00 
1.518774e+00 
1.534649e+00 
1.550849e+00 
1.567367e+00 
1.584197e+00 
1.601332e+00 
1.618766e+00 
1.636494e+00 
1.654509e+00 
2.482072e+00 
2.456573e+00 
2.431186e+00 
2.405913e+00 
2.380758e+00 
2.355722e+00 
2.330810e+00 
2.306025e+00 
2.281369e+00 
2.256847e+00 
2.232462e+00 
2.208217e+00 
2.184116e+00 
2.160163e+00 
2.136362e+00 
2.112717e+00 
2.089232e+00 
2.065912e+00 
2.042761e+00 
2.019783e+00 
1.996983e+00 
1.974367e+00 
1.951938e+00 
1.929702e+00 
1.907665e+00 
1.885831e+00 
1.864206e+00 
1.842796e+00 
1.821607e+00 
1.800644e+00 
1.779913e+00 
1.759421e+00 
1.739174e+00 
1.719179e+00 
1.699441e+00 
1.679968e+00 
1.660767e+00 
1.641844e+00 
1.623207e+00 
1.604863e+00 
1.586820e+00 
1.569083e+00 
1.551662e+00 
1.534564e+00 
1.517797e+00 
1.501368e+00 
1.485285e+00 
1.469557e+00 
1.454190e+00 
1.439195e+00 
1.424577e+00 
1.410346e+00 
1.396510e+00 
1.383077e+00 
1.370054e+00 
1.357451e+00 
1.345274e+00 
1.333532e+00 
1.322234e+00 
1.311386e+00 
1.300996e+00 
1.291071e+00 
1.281620e+00 
1.272649e+00 
1.264165e+00 
1.256175e+00 
1.248684e+00 
1.241698e+00 
1.235221e+00 
1.229252e+00 
1.223787e+00 
1.218805e+00 
1.214256e+00 
1.210042e+00 
1.206015e+00 
1.202067e+00 
1.198346e+00 
1.194992e+00 
1.192087e+00 
1.189673e+00 
1.187768e+00 
1.186379e+00 
1.185511e+00 
1.185164e+00 
1.185339e+00 
1.186034e+00 
1.187248e+00 
1.188979e+00 
1.191226e+00 
1.193986e+00 
1.197256e+00 
1.201032e+00 
1.205312e+00 
1.210090e+00 
1.215364e+00 
1.221127e+00 
1.227376e+00 
1.234105e+00 
1.241309e+00 
1.248983e+00 
1.257121e+00 
1.265716e+00 
1.274763e+00 
1.284256e+00 
1.294188e+00 
1.304553e+00 
1.315343e+00 
1.326554e+00 
1.338177e+00 
1.350206e+00 
1.362634e+00 
1.375454e+00 
1.388660e+00 
1.402245e+00 
1.416201e+00 
1.430523e+00 
1.445202e+00 
1.460232e+00 
1.475607e+00 
1.491320e+00 
1.507363e+00 
1.523731e+00 
1.540417e+00 
1.557415e+00 
1.574717e+00 
1.592319e+00 
1.610212e+00 
1.628392e+00 
2.462610e+00 
2.436943e+00 
2.411386e+00 
2.385942e+00 
2.360614e+00 
2.335406e+00 
2.310319e+00 
2.285358e+00 
2.260526e+00 
2.235826e+00 
2.211262e+00 
2.186837e+00 
2.162556e+00 
2.138422e+00 
2.114439e+00 
2.090611e+00 
2.066943e+00 
2.043439e+00 
2.020103e+00 
1.996941e+00 
1.973955e+00 
1.951153e+00 
1.928538e+00 
1.906116e+00 
1.883891e+00 
1.861870e+00 
1.840058e+00 
1.818461e+00 
1.797083e+00 
1.775933e+00 
1.755014e+00 
1.734334e+00 
1.713899e+00 
1.693716e+00 
1.673791e+00 
1.654130e+00 
1.634742e+00 
1.615632e+00 
1.596808e+00 
1.578278e+00 
1.560048e+00 
1.542126e+00 
1.524521e+00 
1.507238e+00 
1.490288e+00 
1.473676e+00 
1.457412e+00 
1.441504e+00 
1.425959e+00 
1.410787e+00 
1.395994e+00 
1.381590e+00 
1.367583e+00 
1.353981e+00 
1.340793e+00 
1.328026e+00 
1.315690e+00 
1.303792e+00 
1.292341e+00 
1.281344e+00 
1.270810e+00 
1.260746e+00 
1.251161e+00 
1.242060e+00 
1.233452e+00 
1.225344e+00 
1.217742e+00 
1.210651e+00 
1.204077e+00 
1.198021e+00 
1.192481e+00 
1.187441e+00 
1.182859e+00 
1.178641e+00 
1.174645e+00 
1.170735e+00 
1.167015e+00 
1.163647e+00 
1.160726e+00 
1.158299e+00 
1.156386e+00 
1.154998e+00 
1.154137e+00 
1.153805e+00 
1.154003e+00 
1.154729e+00 
1.155983e+00 
1.157761e+00 
1.160063e+00 
1.162885e+00 
1.166224e+00 
1.170077e+00 
1.174440e+00 
1.179309e+00 
1.184679e+00 
1.190545e+00 
1.196903e+00 
1.203747e+00 
1.211071e+00 
1.218870e+00 
1.227138e+00 
1.235868e+00 
1.245054e+00 
1.254690e+00 
1.264769e+00 
1.275284e+00 
1.286229e+00 
1.297596e+00 
1.309378e+00 
1.321569e+00 
1.334162e+00 
1.347148e+00 
1.360522e+00 
1.374276e+00 
1.388404e+00 
1.402897e+00 
1.417749e+00 
1.432953e+00 
1.448502e+00 
1.464389e+00 
1.480607e+00 
1.497150e+00 
1.514010e+00 
1.531182e+00 
1.548658e+00 
1.566432e+00 
1.584498e+00 
1.602849e+00 
2.443189e+00 
2.417366e+00 
2.391653e+00 
2.366052e+00 
2.340566e+00 
2.315198e+00 
2.289951e+00 
2.264830e+00 
2.239836e+00 
2.214973e+00 
2.190246e+00 
2.165658e+00 
2.141211e+00 
2.116912e+00 
2.092762e+00 
2.068768e+00 
2.044932e+00 
2.021259e+00 
1.997753e+00 
1.974420e+00 
1.951264e+00 
1.928289e+00 
1.905502e+00 
1.882906e+00 
1.860507e+00 
1.838311e+00 
1.816323e+00 
1.794549e+00 
1.772995e+00 
1.751665e+00 
1.730568e+00 
1.709708e+00 
1.689093e+00 
1.668728e+00 
1.648621e+00 
1.628778e+00 
1.609207e+00 
1.589913e+00 
1.570905e+00 
1.552190e+00 
1.533776e+00 
1.515669e+00 
1.497879e+00 
1.480412e+00 
1.463276e+00 
1.446480e+00 
1.430033e+00 
1.413941e+00 
1.398214e+00 
1.382860e+00 
1.367888e+00 
1.353306e+00 
1.339123e+00 
1.325347e+00 
1.311987e+00 
1.299051e+00 
1.286549e+00 
1.274488e+00 
1.262878e+00 
1.251726e+00 
1.241042e+00 
1.230832e+00 
1.221105e+00 
1.211869e+00 
1.203131e+00 
1.194899e+00 
1.187179e+00 
1.179978e+00 
1.173301e+00 
1.167152e+00 
1.161530e+00 
1.156422e+00 
1.151790e+00 
1.147546e+00 
1.143551e+00 
1.139672e+00 
1.135951e+00 
1.132568e+00 
1.129627e+00 
1.127183e+00 
1.125259e+00 
1.123865e+00 
1.123007e+00 
1.122686e+00 
1.122903e+00 
1.123657e+00 
1.124946e+00 
1.126769e+00 
1.129123e+00 
1.132005e+00 
1.135413e+00 
1.139341e+00 
1.143788e+00 
1.148747e+00 
1.154215e+00 
1.160186e+00 
1.166655e+00 
1.173617e+00 
1.181066e+00 
1.188995e+00 
1.197398e+00 
1.206269e+00 
1.215601e+00 
1.225388e+00 
1.235622e+00 
1.246296e+00 
1.257403e+00 
1.268937e+00 
1.280889e+00 
1.293252e+00 
1.306020e+00 
1.319184e+00 
1.332737e+00 
1.346672e+00 
1.360982e+00 
1.375659e+00 
1.390696e+00 
1.406085e+00 
1.421820e+00 
1.437893e+00 
1.454298e+00 
1.471027e+00 
1.488073e+00 
1.505430e+00 
1.523091e+00 
1.541049e+00 
1.559298e+00 
1.577831e+00 
2.424027e+00 
2.398065e+00 
2.372210e+00 
2.346467e+00 
2.320838e+00 
2.295326e+00 
2.269935e+00 
2.244667e+00 
2.219525e+00 
2.194515e+00 
2.169638e+00 
2.144899e+00 
2.120300e+00 
2.095848e+00 
2.071544e+00 
2.047393e+00 
2.023400e+00 
1.999569e+00 
1.975904e+00 
1.952409e+00 
1.929090e+00 
1.905952e+00 
1.882998e+00 
1.860235e+00 
1.837668e+00 
1.815302e+00 
1.793142e+00 
1.771194e+00 
1.749464e+00 
1.727959e+00 
1.706683e+00 
1.685644e+00 
1.664847e+00 
1.644300e+00 
1.624008e+00 
1.603980e+00 
1.584221e+00 
1.564740e+00 
1.545543e+00 
1.526637e+00 
1.508031e+00 
1.489733e+00 
1.471749e+00 
1.454089e+00 
1.436760e+00 
1.419770e+00 
1.403129e+00 
1.386844e+00 
1.370924e+00 
1.355378e+00 
1.340215e+00 
1.325443e+00 
1.311072e+00 
1.297109e+00 
1.283565e+00 
1.270448e+00 
1.257768e+00 
1.245532e+00 
1.233750e+00 
1.222431e+00 
1.211583e+00 
1.201215e+00 
1.191335e+00 
1.181951e+00 
1.173072e+00 
1.164704e+00 
1.156856e+00 
1.149534e+00 
1.142745e+00 
1.136492e+00 
1.130776e+00 
1.125587e+00 
1.120888e+00 
1.116596e+00 
1.112579e+00 
1.108685e+00 
1.104942e+00 
1.101528e+00 
1.098553e+00 
1.096077e+00 
1.094125e+00 
1.092711e+00 
1.091840e+00 
1.091516e+00 
1.091738e+00 
1.092506e+00 
1.093818e+00 
1.095673e+00 
1.098068e+00 
1.101000e+00 
1.104467e+00 
1.108463e+00 
1.112986e+00 
1.118030e+00 
1.123591e+00 
1.129664e+00 
1.136242e+00 
1.143321e+00 
1.150894e+00 
1.158954e+00 
1.167496e+00 
1.176512e+00 
1.185995e+00 
1.195939e+00 
1.206336e+00 
1.217178e+00 
1.228458e+00 
1.240170e+00 
1.252304e+00 
1.264853e+00 
1.277810e+00 
1.291167e+00 
1.304915e+00 
1.319049e+00 
1.333559e+00 
1.348438e+00 
1.363678e+00 
1.379273e+00 
1.395213e+00 
1.411493e+00 
1.428105e+00 
1.445041e+00 
1.462294e+00 
1.479857e+00 
1.497724e+00 
1.515887e+00 
1.534340e+00 
1.553076e+00 
2.405353e+00 
2.379261e+00 
2.353277e+00 
2.327402e+00 
2.301639e+00 
2.275992e+00 
2.250464e+00 
2.225058e+00 
2.199777e+00 
2.174625e+00 
2.149604e+00 
2.124720e+00 
2.099974e+00 
2.075372e+00 
2.050918e+00 
2.026614e+00 
2.002466e+00 
1.978477e+00 
1.954652e+00 
1.930996e+00 
1.907513e+00 
1.884209e+00 
1.861087e+00 
1.838153e+00 
1.815412e+00 
1.792871e+00 
1.770533e+00 
1.748405e+00 
1.726493e+00 
1.704802e+00 
1.683339e+00 
1.662110e+00 
1.641122e+00 
1.620380e+00 
1.599893e+00 
1.579666e+00 
1.559707e+00 
1.540024e+00 
1.520623e+00 
1.501512e+00 
1.482700e+00 
1.464193e+00 
1.446000e+00 
1.428130e+00 
1.410590e+00 
1.393389e+00 
1.376536e+00 
1.360040e+00 
1.343909e+00 
1.328152e+00 
1.312779e+00 
1.297799e+00 
1.283220e+00 
1.269053e+00 
1.255306e+00 
1.241989e+00 
1.229111e+00 
1.216682e+00 
1.204711e+00 
1.193206e+00 
1.182178e+00 
1.171634e+00 
1.161585e+00 
1.152038e+00 
1.143001e+00 
1.134484e+00 
1.126494e+00 
1.119038e+00 
1.112123e+00 
1.105754e+00 
1.099932e+00 
1.094648e+00 
1.089868e+00 
1.085513e+00 
1.081450e+00 
1.077499e+00 
1.073712e+00 
1.070247e+00 
1.067218e+00 
1.064691e+00 
1.062694e+00 
1.061244e+00 
1.060346e+00 
1.060004e+00 
1.060218e+00 
1.060988e+00 
1.062312e+00 
1.064189e+00 
1.066616e+00 
1.069590e+00 
1.073108e+00 
1.077166e+00 
1.081760e+00 
1.086884e+00 
1.092534e+00 
1.098705e+00 
1.105390e+00 
1.112584e+00 
1.120280e+00 
1.128471e+00 
1.137152e+00 
1.146314e+00 
1.155951e+00 
1.166054e+00 
1.176617e+00 
1.187632e+00 
1.199091e+00 
1.210986e+00 
1.223308e+00 
1.236051e+00 
1.249206e+00 
1.262765e+00 
1.276719e+00 
1.291062e+00 
1.305784e+00 
1.320878e+00 
1.336336e+00 
1.352150e+00 
1.368312e+00 
1.384815e+00 
1.401650e+00 
1.418811e+00 
1.436290e+00 
1.454079e+00 
1.472172e+00 
1.490560e+00 
1.509238e+00 
1.528199e+00 
2.387296e+00 
2.361078e+00 
2.334964e+00 
2.308957e+00 
2.283061e+00 
2.257279e+00 
2.231613e+00 
2.206067e+00 
2.180643e+00 
2.155346e+00 
2.130178e+00 
2.105144e+00 
2.080246e+00 
2.055489e+00 
2.030876e+00 