# vtk DataFile Version 2.0 
Quadtree Mesh 
ASCII 
DATASET UNSTRUCTURED_GRID 
POINTS 16384 double 
-1.000000e+00 -1.000000e+00 0.000000e+00
-9.842520e-01 -1.000000e+00 0.000000e+00
-9.685039e-01 -1.000000e+00 0.000000e+00
-9.527559e-01 -1.000000e+00 0.000000e+00
-9.370079e-01 -1.000000e+00 0.000000e+00
-9.212598e-01 -1.000000e+00 0.000000e+00
-9.055118e-01 -1.000000e+00 0.000000e+00
-8.897638e-01 -1.000000e+00 0.000000e+00
-8.740157e-01 -1.000000e+00 0.000000e+00
-8.582677e-01 -1.000000e+00 0.000000e+00
-8.425197e-01 -1.000000e+00 0.000000e+00
-8.267717e-01 -1.000000e+00 0.000000e+00
-8.110236e-01 -1.000000e+00 0.000000e+00
-7.952756e-01 -1.000000e+00 0.000000e+00
-7.795276e-01 -1.000000e+00 0.000000e+00
-7.637795e-01 -1.000000e+00 0.000000e+00
-7.480315e-01 -1.000000e+00 0.000000e+00
-7.322835e-01 -1.000000e+00 0.000000e+00
-7.165354e-01 -1.000000e+00 0.000000e+00
-7.007874e-01 -1.000000e+00 0.000000e+00
-6.850394e-01 -1.000000e+00 0.000000e+00
-6.692913e-01 -1.000000e+00 0.000000e+00
-6.535433e-01 -1.000000e+00 0.000000e+00
-6.377953e-01 -1.000000e+00 0.000000e+00
-6.220472e-01 -1.000000e+00 0.000000e+00
-6.062992e-01 -1.000000e+00 0.000000e+00
-5.905512e-01 -1.000000e+00 0.000000e+00
-5.748031e-01 -1.000000e+00 0.000000e+00
-5.590551e-01 -1.000000e+00 0.000000e+00
-5.433071e-01 -1.000000e+00 0.000000e+00
-5.275591e-01 -1.000000e+00 0.000000e+00
-5.118110e-01 -1.000000e+00 0.000000e+00
-4.960630e-01 -1.000000e+00 0.000000e+00
-4.803150e-01 -1.000000e+00 0.000000e+00
-4.645669e-01 -1.000000e+00 0.000000e+00
-4.488189e-01 -1.000000e+00 0.000000e+00
-4.330709e-01 -1.000000e+00 0.000000e+00
-4.173228e-01 -1.000000e+00 0.000000e+00
-4.015748e-01 -1.000000e+00 0.000000e+00
-3.858268e-01 -1.000000e+00 0.000000e+00
-3.700787e-01 -1.000000e+00 0.000000e+00
-3.543307e-01 -1.000000e+00 0.000000e+00
-3.385827e-01 -1.000000e+00 0.000000e+00
-3.228346e-01 -1.000000e+00 0.000000e+00
-3.070866e-01 -1.000000e+00 0.000000e+00
-2.913386e-01 -1.000000e+00 0.000000e+00
-2.755906e-01 -1.000000e+00 0.000000e+00
-2.598425e-01 -1.000000e+00 0.000000e+00
-2.440945e-01 -1.000000e+00 0.000000e+00
-2.283465e-01 -1.000000e+00 0.000000e+00
-2.125984e-01 -1.000000e+00 0.000000e+00
-1.968504e-01 -1.000000e+00 0.000000e+00
-1.811024e-01 -1.000000e+00 0.000000e+00
-1.653543e-01 -1.000000e+00 0.000000e+00
-1.496063e-01 -1.000000e+00 0.000000e+00
-1.338583e-01 -1.000000e+00 0.000000e+00
-1.181102e-01 -1.000000e+00 0.000000e+00
-1.023622e-01 -1.000000e+00 0.000000e+00
-8.661417e-02 -1.000000e+00 0.000000e+00
-7.086614e-02 -1.000000e+00 0.000000e+00
-5.511811e-02 -1.000000e+00 0.000000e+00
-3.937008e-02 -1.000000e+00 0.000000e+00
-2.362205e-02 -1.000000e+00 0.000000e+00
-7.874016e-03 -1.000000e+00 0.000000e+00
7.874016e-03 -1.000000e+00 0.000000e+00
2.362205e-02 -1.000000e+00 0.000000e+00
3.937008e-02 -1.000000e+00 0.000000e+00
5.511811e-02 -1.000000e+00 0.000000e+00
7.086614e-02 -1.000000e+00 0.000000e+00
8.661417e-02 -1.000000e+00 0.000000e+00
1.023622e-01 -1.000000e+00 0.000000e+00
1.181102e-01 -1.000000e+00 0.000000e+00
1.338583e-01 -1.000000e+00 0.000000e+00
1.496063e-01 -1.000000e+00 0.000000e+00
1.653543e-01 -1.000000e+00 0.000000e+00
1.811024e-01 -1.000000e+00 0.000000e+00
1.968504e-01 -1.000000e+00 0.000000e+00
2.125984e-01 -1.000000e+00 0.000000e+00
2.283465e-01 -1.000000e+00 0.000000e+00
2.440945e-01 -1.000000e+00 0.000000e+00
2.598425e-01 -1.000000e+00 0.000000e+00
2.755906e-01 -1.000000e+00 0.000000e+00
2.913386e-01 -1.000000e+00 0.000000e+00
3.070866e-01 -1.000000e+00 0.000000e+00
3.228346e-01 -1.000000e+00 0.000000e+00
3.385827e-01 -1.000000e+00 0.000000e+00
3.543307e-01 -1.000000e+00 0.000000e+00
3.700787e-01 -1.000000e+00 0.000000e+00
3.858268e-01 -1.000000e+00 0.000000e+00
4.015748e-01 -1.000000e+00 0.000000e+00
4.173228e-01 -1.000000e+00 0.000000e+00
4.330709e-01 -1.000000e+00 0.000000e+00
4.488189e-01 -1.000000e+00 0.000000e+00
4.645669e-01 -1.000000e+00 0.000000e+00
4.803150e-01 -1.000000e+00 0.000000e+00
4.960630e-01 -1.000000e+00 0.000000e+00
5.118110e-01 -1.000000e+00 0.000000e+00
5.275591e-01 -1.000000e+00 0.000000e+00
5.433071e-01 -1.000000e+00 0.000000e+00
5.590551e-01 -1.000000e+00 0.000000e+00
5.748031e-01 -1.000000e+00 0.000000e+00
5.905512e-01 -1.000000e+00 0.000000e+00
6.062992e-01 -1.000000e+00 0.000000e+00
6.220472e-01 -1.000000e+00 0.000000e+00
6.377953e-01 -1.000000e+00 0.000000e+00
6.535433e-01 -1.000000e+00 0.000000e+00
6.692913e-01 -1.000000e+00 0.000000e+00
6.850394e-01 -1.000000e+00 0.000000e+00
7.007874e-01 -1.000000e+00 0.000000e+00
7.165354e-01 -1.000000e+00 0.000000e+00
7.322835e-01 -1.000000e+00 0.000000e+00
7.480315e-01 -1.000000e+00 0.000000e+00
7.637795e-01 -1.000000e+00 0.000000e+00
7.795276e-01 -1.000000e+00 0.000000e+00
7.952756e-01 -1.000000e+00 0.000000e+00
8.110236e-01 -1.000000e+00 0.000000e+00
8.267717e-01 -1.000000e+00 0.000000e+00
8.425197e-01 -1.000000e+00 0.000000e+00
8.582677e-01 -1.000000e+00 0.000000e+00
8.740157e-01 -1.000000e+00 0.000000e+00
8.897638e-01 -1.000000e+00 0.000000e+00
9.055118e-01 -1.000000e+00 0.000000e+00
9.212598e-01 -1.000000e+00 0.000000e+00
9.370079e-01 -1.000000e+00 0.000000e+00
9.527559e-01 -1.000000e+00 0.000000e+00
9.685039e-01 -1.000000e+00 0.000000e+00
9.842520e-01 -1.000000e+00 0.000000e+00
1.000000e+00 -1.000000e+00 0.000000e+00
-1.000000e+00 -9.842520e-01 0.000000e+00
-9.842520e-01 -9.842520e-01 0.000000e+00
-9.685039e-01 -9.842520e-01 0.000000e+00
-9.527559e-01 -9.842520e-01 0.000000e+00
-9.370079e-01 -9.842520e-01 0.000000e+00
-9.212598e-01 -9.842520e-01 0.000000e+00
-9.055118e-01 -9.842520e-01 0.000000e+00
-8.897638e-01 -9.842520e-01 0.000000e+00
-8.740157e-01 -9.842520e-01 0.000000e+00
-8.582677e-01 -9.842520e-01 0.000000e+00
-8.425197e-01 -9.842520e-01 0.000000e+00
-8.267717e-01 -9.842520e-01 0.000000e+00
-8.110236e-01 -9.842520e-01 0.000000e+00
-7.952756e-01 -9.842520e-01 0.000000e+00
-7.795276e-01 -9.842520e-01 0.000000e+00
-7.637795e-01 -9.842520e-01 0.000000e+00
-7.480315e-01 -9.842520e-01 0.000000e+00
-7.322835e-01 -9.842520e-01 0.000000e+00
-7.165354e-01 -9.842520e-01 0.000000e+00
-7.007874e-01 -9.842520e-01 0.000000e+00
-6.850394e-01 -9.842520e-01 0.000000e+00
-6.692913e-01 -9.842520e-01 0.000000e+00
-6.535433e-01 -9.842520e-01 0.000000e+00
-6.377953e-01 -9.842520e-01 0.000000e+00
-6.220472e-01 -9.842520e-01 0.000000e+00
-6.062992e-01 -9.842520e-01 0.000000e+00
-5.905512e-01 -9.842520e-01 0.000000e+00
-5.748031e-01 -9.842520e-01 0.000000e+00
-5.590551e-01 -9.842520e-01 0.000000e+00
-5.433071e-01 -9.842520e-01 0.000000e+00
-5.275591e-01 -9.842520e-01 0.000000e+00
-5.118110e-01 -9.842520e-01 0.000000e+00
-4.960630e-01 -9.842520e-01 0.000000e+00
-4.803150e-01 -9.842520e-01 0.000000e+00
-4.645669e-01 -9.842520e-01 0.000000e+00
-4.488189e-01 -9.842520e-01 0.000000e+00
-4.330709e-01 -9.842520e-01 0.000000e+00
-4.173228e-01 -9.842520e-01 0.000000e+00
-4.015748e-01 -9.842520e-01 0.000000e+00
-3.858268e-01 -9.842520e-01 0.000000e+00
-3.700787e-01 -9.842520e-01 0.000000e+00
-3.543307e-01 -9.842520e-01 0.000000e+00
-3.385827e-01 -9.842520e-01 0.000000e+00
-3.228346e-01 -9.842520e-01 0.000000e+00
-3.070866e-01 -9.842520e-01 0.000000e+00
-2.913386e-01 -9.842520e-01 0.000000e+00
-2.755906e-01 -9.842520e-01 0.000000e+00
-2.598425e-01 -9.842520e-01 0.000000e+00
-2.440945e-01 -9.842520e-01 0.000000e+00
-2.283465e-01 -9.842520e-01 0.000000e+00
-2.125984e-01 -9.842520e-01 0.000000e+00
-1.968504e-01 -9.842520e-01 0.000000e+00
-1.811024e-01 -9.842520e-01 0.000000e+00
-1.653543e-01 -9.842520e-01 0.000000e+00
-1.496063e-01 -9.842520e-01 0.000000e+00
-1.338583e-01 -9.842520e-01 0.000000e+00
-1.181102e-01 -9.842520e-01 0.000000e+00
-1.023622e-01 -9.842520e-01 0.000000e+00
-8.661417e-02 -9.842520e-01 0.000000e+00
-7.086614e-02 -9.842520e-01 0.000000e+00
-5.511811e-02 -9.842520e-01 0.000000e+00
-3.937008e-02 -9.842520e-01 0.000000e+00
-2.362205e-02 -9.842520e-01 0.000000e+00
-7.874016e-03 -9.842520e-01 0.000000e+00
7.874016e-03 -9.842520e-01 0.000000e+00
2.362205e-02 -9.842520e-01 0.000000e+00
3.937008e-02 -9.842520e-01 0.000000e+00
5.511811e-02 -9.842520e-01 0.000000e+00
7.086614e-02 -9.842520e-01 0.000000e+00
8.661417e-02 -9.842520e-01 0.000000e+00
1.023622e-01 -9.842520e-01 0.000000e+00
1.181102e-01 -9.842520e-01 0.000000e+00
1.338583e-01 -9.842520e-01 0.000000e+00
1.496063e-01 -9.842520e-01 0.000000e+00
1.653543e-01 -9.842520e-01 0.000000e+00
1.811024e-01 -9.842520e-01 0.000000e+00
1.968504e-01 -9.842520e-01 0.000000e+00
2.125984e-01 -9.842520e-01 0.000000e+00
2.283465e-01 -9.842520e-01 0.000000e+00
2.440945e-01 -9.842520e-01 0.000000e+00
2.598425e-01 -9.842520e-01 0.000000e+00
2.755906e-01 -9.842520e-01 0.000000e+00
2.913386e-01 -9.842520e-01 0.000000e+00
3.070866e-01 -9.842520e-01 0.000000e+00
3.228346e-01 -9.842520e-01 0.000000e+00
3.385827e-01 -9.842520e-01 0.000000e+00
3.543307e-01 -9.842520e-01 0.000000e+00
3.700787e-01 -9.842520e-01 0.000000e+00
3.858268e-01 -9.842520e-01 0.000000e+00
4.015748e-01 -9.842520e-01 0.000000e+00
4.173228e-01 -9.842520e-01 0.000000e+00
4.330709e-01 -9.842520e-01 0.000000e+00
4.488189e-01 -9.842520e-01 0.000000e+00
4.645669e-01 -9.842520e-01 0.000000e+00
4.803150e-01 -9.842520e-01 0.000000e+00
4.960630e-01 -9.842520e-01 0.000000e+00
5.118110e-01 -9.842520e-01 0.000000e+00
5.275591e-01 -9.842520e-01 0.000000e+00
5.433071e-01 -9.842520e-01 0.000000e+00
5.590551e-01 -9.842520e-01 0.000000e+00
5.748031e-01 -9.842520e-01 0.000000e+00
5.905512e-01 -9.842520e-01 0.000000e+00
6.062992e-01 -9.842520e-01 0.000000e+00
6.220472e-01 -9.842520e-01 0.000000e+00
6.377953e-01 -9.842520e-01 0.000000e+00
6.535433e-01 -9.842520e-01 0.000000e+00
6.692913e-01 -9.842520e-01 0.000000e+00
6.850394e-01 -9.842520e-01 0.000000e+00
7.007874e-01 -9.842520e-01 0.000000e+00
7.165354e-01 -9.842520e-01 0.000000e+00
7.322835e-01 -9.842520e-01 0.000000e+00
7.480315e-01 -9.842520e-01 0.000000e+00
7.637795e-01 -9.842520e-01 0.000000e+00
7.795276e-01 -9.842520e-01 0.000000e+00
7.952756e-01 -9.842520e-01 0.000000e+00
8.110236e-01 -9.842520e-01 0.000000e+00
[...]
POINT_DATA 16384 
SCALARS concentration double 1 
LOOKUP_TABLE default 
2.535577e+00 
2.511047e+00 
2.486640e+00 
2.462358e+00 
2.438204e+00 
2.414181e+00 
2.390291e+00 
2.366539e+00 
2.342927e+00 
2.319458e+00 
2.296136e+00 
2.272964e+00 
2.249946e+00 
2.227085e+00 
2.204385e+00 
2.181850e+00 
2.159483e+00 
2.137289e+00 
2.115272e+00 
2.093436e+00 
2.071784e+00 
2.050322e+00 
2.029055e+00 
2.007986e+00 
1.987120e+00 
1.966463e+00 
1.946019e+00 
1.925794e+00 
1.905792e+00 
1.886018e+00 
1.866480e+00 
1.847181e+00 
1.828128e+00 
1.809326e+00 
1.790781e+00 
1.772500e+00 
1.754488e+00 
1.736752e+00 
1.719298e+00 
1.702132e+00 
1.685261e+00 
1.668692e+00 
1.652430e+00 
1.636484e+00 
1.620858e+00 
1.605562e+00 
1.590600e+00 
1.575981e+00 
1.561710e+00 
1.547795e+00 
1.534243e+00 
1.521061e+00 
1.508256e+00 
1.495833e+00 
1.483801e+00 
1.472166e+00 
1.460934e+00 
1.450112e+00 
1.439706e+00 
1.429723e+00 
1.420169e+00 
1.411050e+00 
1.402371e+00 
1.394139e+00 
1.386359e+00 
1.379034e+00 
1.372170e+00 
1.365767e+00 
1.359825e+00 
1.354332e+00 
1.349264e+00 
1.344574e+00 
1.340181e+00 
1.335973e+00 
1.331841e+00 
1.327797e+00 
1.323953e+00 
1.320418e+00 
1.317265e+00 
1.314539e+00 
1.312262e+00 
1.310446e+00 
1.309096e+00 
1.308215e+00 
1.307804e+00 
1.307863e+00 
1.308391e+00 
1.309388e+00 
1.310851e+00 
1.312779e+00 
1.315171e+00 
1.318023e+00 
1.321334e+00 
1.325101e+00 
1.329320e+00 
1.333989e+00 
1.339104e+00 
1.344661e+00 
1.350656e+00 
1.357087e+00 
1.363947e+00 
1.371234e+00 
1.378942e+00 
1.387066e+00 
1.395603e+00 
1.404548e+00 
1.413894e+00 
1.423638e+00 
1.433774e+00 
1.444298e+00 
1.455202e+00 
1.466484e+00 
1.478137e+00 
1.490155e+00 
1.502534e+00 
1.515268e+00 
1.528351e+00 
1.541779e+00 
1.555546e+00 
1.569646e+00 
1.584074e+00 
1.598825e+00 
1.613892e+00 
1.629272e+00 
1.644959e+00 
1.660947e+00 
1.677231e+00 
1.693806e+00 
2.515733e+00 
2.491036e+00 
2.466460e+00 
2.442007e+00 
2.417679e+00 
2.393480e+00 
2.369413e+00 
2.345480e+00 
2.321686e+00 
2.298033e+00 
2.274524e+00 
2.251163e+00 
2.227955e+00 
2.204901e+00 
2.182007e+00 
2.159275e+00 
2.136711e+00 
2.114317e+00 
2.092099e+00 
2.070059e+00 
2.048204e+00 
2.026538e+00 
2.005064e+00 
1.983788e+00 
1.962715e+00 
1.941849e+00 
1.921196e+00 
1.900762e+00 
1.880551e+00 
1.860569e+00 
1.840821e+00 
1.821314e+00 
1.802053e+00 
1.783045e+00 
1.764294e+00 
1.745808e+00 
1.727593e+00 
1.709655e+00 
1.692000e+00 
1.674636e+00 
1.657568e+00 
1.640804e+00 
1.624350e+00 
1.608214e+00 
1.592401e+00 
1.576920e+00 
1.561777e+00 
1.546978e+00 
1.532532e+00 
1.518445e+00 
1.504724e+00 
1.491377e+00 
1.478409e+00 
1.465829e+00 
1.453642e+00 
1.441857e+00 
1.430479e+00 
1.419515e+00 
1.408973e+00 
1.398857e+00 
1.389176e+00 
1.379934e+00 
1.371138e+00 
1.362793e+00 
1.354906e+00 
1.347480e+00 
1.340520e+00 
1.334028e+00 
1.328003e+00 
1.322438e+00 
1.317313e+00 
1.312586e+00 
1.308186e+00 
1.304006e+00 
1.299931e+00 
1.295923e+00 
1.292090e+00 
1.288550e+00 
1.285387e+00 
1.282650e+00 
1.280367e+00 
1.278550e+00 
1.277205e+00 
1.276335e+00 
1.275940e+00 
1.276022e+00 
1.276580e+00 
1.277611e+00 
1.279116e+00 
1.281091e+00 
1.283536e+00 
1.286447e+00 
1.289822e+00 
1.293658e+00 
1.297952e+00 
1.302700e+00 
1.307899e+00 
1.313545e+00 
1.319635e+00 
1.326163e+00 
1.333125e+00 
1.340518e+00 
1.348335e+00 
1.356573e+00 
1.365227e+00 
1.374291e+00 
1.383760e+00 
1.393630e+00 
1.403894e+00 
1.414547e+00 
1.425584e+00 
1.437000e+00 
1.448789e+00 
1.460945e+00 
1.473463e+00 
1.486338e+00 
1.499563e+00 
1.513133e+00 
1.527043e+00 
1.541287e+00 
1.555860e+00 
1.570755e+00 
1.585968e+00 
1.601493e+00 
1.617325e+00 
1.633458e+00 
1.649887e+00 
1.666606e+00 
2.495893e+00 
2.471025e+00 
2.446275e+00 
2.421645e+00 
2.397139e+00 
2.372760e+00 
2.348511e+00 
2.324394e+00 
2.300414e+00 
2.276573e+00 
2.252875e+00 
2.229323e+00 
2.205922e+00 
2.182675e+00 
2.159585e+00 
2.136657e+00 
2.113894e+00 
2.091302e+00 
2.068884e+00 
2.046645e+00 
2.024588e+00 
2.002720e+00 
1.981044e+00 
1.959566e+00 
1.938291e+00 
1.917223e+00 
1.896368e+00 
1.875732e+00 
1.855320e+00 
1.835137e+00 
1.815189e+00 
1.795483e+00 
1.776024e+00 
1.756818e+00 
1.737872e+00 
1.719191e+00 
1.700783e+00 
1.682653e+00 
1.664809e+00 
1.647256e+00 
1.630003e+00 
1.613054e+00 
1.596419e+00 
1.580102e+00 
1.564112e+00 
1.548455e+00 
1.533139e+00 
1.518171e+00 
1.503557e+00 
1.489305e+00 
1.475422e+00 
1.461915e+00 
1.448792e+00 
1.436059e+00 
1.423723e+00 
1.411792e+00 
1.400273e+00 
1.389171e+00 
1.378494e+00 
1.368249e+00 
1.358442e+00 
1.349079e+00 
1.340167e+00 
1.331711e+00 
1.323717e+00 
1.316191e+00 
1.309136e+00 
1.302555e+00 
1.296449e+00 
1.290814e+00 
1.285632e+00 
1.280870e+00 
1.276462e+00 
1.272306e+00 
1.268285e+00 
1.264317e+00 
1.260498e+00 
1.256955e+00 
1.253782e+00 
1.251036e+00 
1.248747e+00 
1.246928e+00 
1.245587e+00 
1.244727e+00 
1.244349e+00 
1.244454e+00 
1.245040e+00 
1.246107e+00 
1.247653e+00 
1.249676e+00 
1.252174e+00 
1.255144e+00 
1.258584e+00 
1.262491e+00 
1.266861e+00 
1.271690e+00 
1.276976e+00 
1.282714e+00 
1.288900e+00 
1.295529e+00 
1.302597e+00 
1.310100e+00 
1.318031e+00 
1.326387e+00 
1.335162e+00 
1.344351e+00 
1.353949e+00 
1.363949e+00 
1.374348e+00 
1.385138e+00 
1.396314e+00 
1.407871e+00 
1.419803e+00 
1.432105e+00 
1.444769e+00 
1.457792e+00 
1.471166e+00 
1.484886e+00 
1.498947e+00 
1.513342e+00 
1.528066e+00 
1.543114e+00 
1.558479e+00 
1.574156e+00 
1.590140e+00 
1.606425e+00 
1.623005e+00 
1.639875e+00 
2.476020e+00 
2.450978e+00 
2.426052e+00 
2.401246e+00 
2.376562e+00 
2.352003e+00 
2.327572e+00 
2.303273e+00 
2.279108e+00 
2.255082e+00 
2.231198e+00 
2.207460e+00 
2.183870e+00 
2.160434e+00 
2.137154e+00 
2.114036e+00 
2.091083e+00 
2.068299e+00 
2.045690e+00 
2.023258e+00 
2.001010e+00 
1.978950e+00 
1.957083e+00 
1.935413e+00 
1.913946e+00 
1.892688e+00 
1.871642e+00 
1.850816e+00 
1.830214e+00 
1.809843e+00 
1.789708e+00 
1.769814e+00 
1.750169e+00 
1.730778e+00 
1.711648e+00 
1.692784e+00 
1.674194e+00 
1.655883e+00 
1.637859e+00 
1.620129e+00 
1.602698e+00 
1.585574e+00 
1.568764e+00 
1.552276e+00 
1.536115e+00 
1.520289e+00 
1.504805e+00 
1.489672e+00 
1.474894e+00 
1.460481e+00 
1.446439e+00 
1.432776e+00 
1.419499e+00 
1.406614e+00 
1.394130e+00 
1.382054e+00 
1.370392e+00 
1.359151e+00 
1.348339e+00 
1.337963e+00 
1.328028e+00 
1.318542e+00 
1.309511e+00 
1.300942e+00 
1.292839e+00 
1.285209e+00 
1.278057e+00 
1.271385e+00 
1.265197e+00 
1.259487e+00 
1.254246e+00 
1.249442e+00 
1.245016e+00 
1.240870e+00 
1.236882e+00 
1.232952e+00 
1.229144e+00 
1.225594e+00 
1.222408e+00 
1.219648e+00 
1.217348e+00 
1.215522e+00 
1.214180e+00 
1.213326e+00 
1.212959e+00 
1.213082e+00 
1.213693e+00 
1.214790e+00 
1.216374e+00 
1.218440e+00 
1.220989e+00 
1.224016e+00 
1.227518e+00 
1.231494e+00 
1.235939e+00 
1.240850e+00 
1.246222e+00 
1.252053e+00 
1.258336e+00 
1.265068e+00 
1.272245e+00 
1.279860e+00 
1.287909e+00 
1.296387e+00 
1.305289e+00 
1.314608e+00 
1.324340e+00 
1.334478e+00 
1.345018e+00 
1.355952e+00 
1.367276e+00 
1.378982e+00 
1.391067e+00 
1.403522e+00 
1.416343e+00 
1.429523e+00 
1.443056e+00 
1.456937e+00 
1.471159e+00 
1.485717e+00 
1.500604e+00 
1.515814e+00 
1.531343e+00 
1.547183e+00 
1.563330e+00 
1.579777e+00 
1.596520e+00 
1.613552e+00 
2.456121e+00 
2.430910e+00 
2.405814e+00 
2.380837e+00 
2.355980e+00 
2.331248e+00 
2.306643e+00 
2.282169e+00 
2.257830e+00 
2.233628e+00 
2.209567e+00 
2.185651e+00 
2.161884e+00 
2.138269e+00 
2.114812e+00 
2.091515e+00 
2.068383e+00 
2.045421e+00 
2.022632e+00 
2.000022e+00 
1.977595e+00 
1.955356e+00 
1.933310e+00 
1.911462e+00 
1.889817e+00 
1.868380e+00 
1.847157e+00 
1.826153e+00 
1.805374e+00 
1.784825e+00 
1.764513e+00 
1.744444e+00 
1.724622e+00 
1.705056e+00 
1.685750e+00 
1.666711e+00 
1.647947e+00 
1.629462e+00 
1.611265e+00 
1.593361e+00 
1.575758e+00 
1.558463e+00 
1.541482e+00 
1.524823e+00 
1.508492e+00 
1.492498e+00 
1.476847e+00 
1.461547e+00 
1.446605e+00 
1.432028e+00 
1.417825e+00 
1.404002e+00 
1.390566e+00 
1.377526e+00 
1.364889e+00 
1.352661e+00 
1.340852e+00 
1.329467e+00 
1.318513e+00 
1.307999e+00 
1.297931e+00 
1.288316e+00 
1.279160e+00 
1.270470e+00 
1.262253e+00 
1.254513e+00 
1.247257e+00 
1.240489e+00 
1.234211e+00 
1.228423e+00 
1.223113e+00 
1.218257e+00 
1.213799e+00 
1.209642e+00 
1.205665e+00 
1.201756e+00 
1.197948e+00 
1.194384e+00 
1.191177e+00 
1.188395e+00 
1.186075e+00 
1.184235e+00 
1.182884e+00 
1.182026e+00 
1.181664e+00 
1.181797e+00 
1.182426e+00 
1.183549e+00 
1.185164e+00 
1.187270e+00 
1.189864e+00 
1.192944e+00 
1.196507e+00 
1.200550e+00 
1.205068e+00 
1.210058e+00 
1.215517e+00 
1.221440e+00 
1.227821e+00 
1.234658e+00 
1.241944e+00 
1.249675e+00 
1.257845e+00 
1.266449e+00 
1.275481e+00 
1.284935e+00 
1.294806e+00 
1.305088e+00 
1.315775e+00 
1.326861e+00 
1.338339e+00 
1.350203e+00 
1.362448e+00 
1.375067e+00 
1.388053e+00 
1.401401e+00 
1.415104e+00 
1.429155e+00 
1.443550e+00 
1.458281e+00 
1.473343e+00 
1.488729e+00 
1.504433e+00 
1.520450e+00 
1.536773e+00 
1.553396e+00 
1.570314e+00 
1.587521e+00 
2.436275e+00 
2.410905e+00 
2.385650e+00 
2.360513e+00 
2.335496e+00 
2.310602e+00 
2.285836e+00 
2.261200e+00 
2.236698e+00 
2.212333e+00 
2.188108e+00 
2.164029e+00 
2.140098e+00 
2.116319e+00 
2.092696e+00 
2.069234e+00 
2.045937e+00 
2.022809e+00 
1.999855e+00 
1.977078e+00 
1.954485e+00 
1.932079e+00 
1.909865e+00 
1.887849e+00 
1.866036e+00 
1.844431e+00 
1.823039e+00 
1.801866e+00 
1.780917e+00 
1.760199e+00 
1.739716e+00 
1.719475e+00 
1.699483e+00 
1.679744e+00 
1.660266e+00 
1.641054e+00 
1.622116e+00 
1.603458e+00 
1.585086e+00 
1.567008e+00 
1.549231e+00 
1.531760e+00 
1.514605e+00 
1.497771e+00 
1.481266e+00 
1.465097e+00 
1.449273e+00 
1.433799e+00 
1.418685e+00 
1.403937e+00 
1.389564e+00 
1.375572e+00 
1.361970e+00 
1.348765e+00 
1.335965e+00 
1.323577e+00 
1.311610e+00 
1.300071e+00 
1.288967e+00 
1.278306e+00 
1.268095e+00 
1.258341e+00 
1.249052e+00 
1.240233e+00 
1.231892e+00 
1.224035e+00 
1.216668e+00 
1.209796e+00 
1.203421e+00 
1.197545e+00 
1.192159e+00 
1.187239e+00 
1.182732e+00 
1.178548e+00 
1.174561e+00 
1.170658e+00 
1.166842e+00 
1.163257e+00 
1.160023e+00 
1.157214e+00 
1.154868e+00 
1.153008e+00 
1.151643e+00 
1.150779e+00 
1.150417e+00 
1.150559e+00 
1.151204e+00 
1.152350e+00 
1.153997e+00 
1.156141e+00 
1.158782e+00 
1.161916e+00 
1.165540e+00 
1.169650e+00 
1.174243e+00 
1.179316e+00 
1.184863e+00 
1.190881e+00 
1.197364e+00 
1.204308e+00 
1.211707e+00 
1.219556e+00 
1.227850e+00 
1.236583e+00 
1.245749e+00 
1.255343e+00 
1.265357e+00 
1.275786e+00 
1.286625e+00 
1.297865e+00 
1.309502e+00 
1.321528e+00 
1.333938e+00 
1.346724e+00 
1.359881e+00 
1.373402e+00 
1.387280e+00 
1.401508e+00 
1.416082e+00 
1.430993e+00 
1.446236e+00 
1.461805e+00 
1.477693e+00 
1.493893e+00 
1.510401e+00 
1.527209e+00 
1.544312e+00 
1.561704e+00 
2.416618e+00 
2.391103e+00 
2.365702e+00 
2.340418e+00 
2.315254e+00 
2.290213e+00 
2.265298e+00 
2.240513e+00 
2.215861e+00 
2.191346e+00 
2.166971e+00 
2.142740e+00 
2.118657e+00 
2.094725e+00 
2.070949e+00 
2.047332e+00 
2.023880e+00 
2.000595e+00 
1.977484e+00 
1.954549e+00 
1.931796e+00 
1.909230e+00 
1.886855e+00 
1.864677e+00 
1.842700e+00 
1.820930e+00 
1.799372e+00 
1.778031e+00 
1.756914e+00 
1.736025e+00 
1.715371e+00 
1.694958e+00 
1.674791e+00 
1.654877e+00 
1.635222e+00 
1.615833e+00 
1.596716e+00 
1.577878e+00 
1.559326e+00 
1.541066e+00 
1.523106e+00 
1.505453e+00 
1.488114e+00 
1.471096e+00 
1.454407e+00 
1.438054e+00 
1.422046e+00 
1.406389e+00 
1.391092e+00 
1.376163e+00 
1.361609e+00 
1.347438e+00 
1.333659e+00 
1.320279e+00 
1.307306e+00 
1.294749e+00 
1.282615e+00 
1.270912e+00 
1.259649e+00 
1.248832e+00 
1.238470e+00 
1.228569e+00 
1.219138e+00 
1.210184e+00 
1.201713e+00 
1.193732e+00 
1.186248e+00 
1.179265e+00 
1.172789e+00 
1.166818e+00 
1.161348e+00 
1.156355e+00 
1.151790e+00 
1.147564e+00 
1.143554e+00 
1.139655e+00 
1.135840e+00 
1.132240e+00 
1.128981e+00 
1.126145e+00 
1.123776e+00 
1.121897e+00 
1.120521e+00 
1.119653e+00 
1.119296e+00 
1.119450e+00 
1.120116e+00 
1.121291e+00 
1.122974e+00 
1.125163e+00 
1.127856e+00 
1.131049e+00 
1.134740e+00 
1.138925e+00 
1.143599e+00 
1.148760e+00 
1.154401e+00 
1.160520e+00 
1.167110e+00 
1.174166e+00 
1.181684e+00 
1.189657e+00 
1.198080e+00 
1.206947e+00 
1.216251e+00 
1.225988e+00 
1.236149e+00 
1.246729e+00 
1.257722e+00 
1.269120e+00 
1.280918e+00 
1.293109e+00 
1.305685e+00 
1.318641e+00 
1.331969e+00 
1.345664e+00 
1.359717e+00 
1.374124e+00 
1.388876e+00 
1.403968e+00 
1.419393e+00 
1.435144e+00 
1.451216e+00 
1.467601e+00 
1.484294e+00 
1.501288e+00 
1.518577e+00 
1.536155e+00 
2.397306e+00 
2.371658e+00 
2.346122e+00 
2.320703e+00 
2.295403e+00 
2.270225e+00 
2.245172e+00 
2.220248e+00 
2.195456e+00 
2.170799e+00 
2.146281e+00 
2.121905e+00 
2.097676e+00 
2.073597e+00 
2.049673e+00 
2.025906e+00 
2.002302e+00 
1.978864e+00 
1.955597e+00 
1.932506e+00 
1.909595e+00 
1.886868e+00 
1.864331e+00 
1.841989e+00 
1.819846e+00 
1.797908e+00 
1.776180e+00 
1.754668e+00 
1.733377e+00 
1.712313e+00 
1.691482e+00 
1.670889e+00 
1.650541e+00 
1.630445e+00 
1.610606e+00 
1.591031e+00 
1.571726e+00 
1.552700e+00 
1.533958e+00 
1.515507e+00 
1.497355e+00 
1.479509e+00 
1.461977e+00 
1.444766e+00 
1.427884e+00 
1.411338e+00 
1.395137e+00 
1.379289e+00 
1.363801e+00 
1.348681e+00 
1.333939e+00 
1.319582e+00 
1.305618e+00 
1.292056e+00 
1.278904e+00 
1.266171e+00 
1.253864e+00 
1.241992e+00 
1.230564e+00 
1.219586e+00 
1.209068e+00 
1.199016e+00 
1.189440e+00 
1.180345e+00 
1.171740e+00 
1.163632e+00 
1.156027e+00 
1.148931e+00 
1.142348e+00 
1.136280e+00 
1.130720e+00 
1.125649e+00 
1.121018e+00 
1.116744e+00 
1.112707e+00 
1.108809e+00 
1.105014e+00 
1.101405e+00 
1.098125e+00 
1.095265e+00 
1.092874e+00 
1.090979e+00 
1.089594e+00 
1.088724e+00 
1.088374e+00 
1.088542e+00 
1.089230e+00 
1.090436e+00 
1.092158e+00 
1.094394e+00 
1.097141e+00 
1.100396e+00 
1.104157e+00 
1.108419e+00 
1.113178e+00 
1.118429e+00 
1.124169e+00 
1.130393e+00 
1.137094e+00 
1.144269e+00 
1.151910e+00 
1.160012e+00 
1.168570e+00 
1.177577e+00 
1.187027e+00 
1.196913e+00 
1.207228e+00 
1.217966e+00 
1.229121e+00 
1.240685e+00 
1.252651e+00 
1.265013e+00 
1.277763e+00 
1.290896e+00 
1.304402e+00 
1.318277e+00 
1.332513e+00 
1.347102e+00 
1.362039e+00 
1.377316e+00 
1.392927e+00 
1.408865e+00 
1.425124e+00 
1.441696e+00 
1.458577e+00 
1.475758e+00 
1.493234e+00 
1.511000e+00 
2.378472e+00 
2.352698e+00 
2.327035e+00 
2.301486e+00 
2.276055e+00 
2.250745e+00 
2.225558e+00 
2.200498e+00 
2.175568e+00 
2.150772e+00 
2.126112e+00 
2.101594e+00 
2.077220e+00 
2.052994e+00 
2.028920e+00 
2.005001e+00 
1.981244e+00 
1.957650e+00 
1.934225e+00 
1.910973e+00 
1.887899e+00 
1.865008e+00 
1.842304e+00 
1.819792e+00 
1.797477e+00 
1.775365e+00 
1.753460e+00 
1.731769e+00 
1.710297e+00 
1.689050e+00 
1.668034e+00 
1.647254e+00 
1.626718e+00 
1.606431e+00 
1.586399e+00 
1.566630e+00 
1.547131e+00 
1.527908e+00 
1.508968e+00 
1.490319e+00 
1.471968e+00 
1.453923e+00 
1.436191e+00 
1.418780e+00 
1.401698e+00 
1.384953e+00 
1.368552e+00 
1.352506e+00 
1.336821e+00 
1.321505e+00 
1.306569e+00 
1.292019e+00 
1.277865e+00 
1.264116e+00 
1.250779e+00 
1.237863e+00 
1.225378e+00 
1.213331e+00 
1.201731e+00 
1.190587e+00 
1.179906e+00 
1.169697e+00 
1.159969e+00 
1.150728e+00 
1.141983e+00 
1.133740e+00 
1.126008e+00 
1.118792e+00 
1.112096e+00 
1.105924e+00 
1.100269e+00 
1.095112e+00 
1.090407e+00 
1.086077e+00 
1.082007e+00 
1.078097e+00 
1.074296e+00 
1.070664e+00 
1.067351e+00 
1.064454e+00 
1.062028e+00 
1.060103e+00 
1.058694e+00 
1.057808e+00 
1.057448e+00 
1.057617e+00 
1.058312e+00 
1.059534e+00 
1.061281e+00 
1.063550e+00 
1.066339e+00 
1.069645e+00 
1.073465e+00 
1.077794e+00 
1.082630e+00 
1.087966e+00 
1.093799e+00 
1.100124e+00 
1.106934e+00 
1.114226e+00 
1.121992e+00 
1.130226e+00 
1.138923e+00 
1.148076e+00 
1.157678e+00 
1.167723e+00 
1.178203e+00 
1.189111e+00 
1.200441e+00 
1.212185e+00 
1.224336e+00 
1.236887e+00 
1.249829e+00 
1.263157e+00 
1.276862e+00 
1.290938e+00 
1.305376e+00 
1.320170e+00 
1.335313e+00 
1.350797e+00 
1.366615e+00 
1.382761e+00 
1.399228e+00 
1.416008e+00 
1.433095e+00 
1.450483e+00 
1.468165e+00 
1.486135e+00 
2.360199e+00 
2.334299e+00 
2.308509e+00 
2.282832e+00 
2.257269e+00 
2.231826e+00 
2.206503e+00 
2.181306e+00 
2.156236e+00 
2.131298e+00 
2.106494e+00 
2.081828e+00 
2.057305e+00 
2.032927e+00 
2.008699e+00 
1.984624e+00 
1.960707e+00 
1.936951e+00 
1.913362e+00 
1.889943e+00 
1.866700e+00 
1.843636e+00 
1.820757e+00 
1.798068e+00 
1.775574e+00 
1.753280e+00 
1.731191e+00 
1.709314e+00 
1.687653e+00 
1.666215e+00 
1.645005e+00 
1.624030e+00 
1.603297e+00 
1.582811e+00 
1.562579e+00 
1.542608e+00 
1.522904e+00 
1.503476e+00 
1.484330e+00 
1.465474e+00 
1.446915e+00 
1.428660e+00 
1.410719e+00 
1.393098e+00 
1.375805e+00 
1.358850e+00 
1.342240e+00 
1.325984e+00 
1.310089e+00 
1.294566e+00 
1.279423e+00 
1.264668e+00 
1.250310e+00 
1.236358e+00 
1.222821e+00 
1.209709e+00 
1.197029e+00 
1.184791e+00 
1.173004e+00 
1.161676e+00 
1.150817e+00 
1.140434e+00 
1.130537e+00 
1.121133e+00 
1.112231e+00 
1.103839e+00 
1.095963e+00 
1.088612e+00 
1.081790e+00 
1.075499e+00 
1.069736e+00 
1.064480e+00 
1.059687e+00 
1.055287e+00 
1.051157e+00 
1.047185e+00 
1.043307e+00 
1.039611e+00 
1.036231e+00 
1.033265e+00 
1.030770e+00 
1.028781e+00 
1.027314e+00 
1.026378e+00 
1.025978e+00 
1.026115e+00 
1.026788e+00 
1.027998e+00 
1.029742e+00 
1.032019e+00 
1.034826e+00 
1.038160e+00 
1.042018e+00 
1.046396e+00 
1.051291e+00 
1.056697e+00 
1.062610e+00 
1.069024e+00 
1.075935e+00 
1.083336e+00 
1.091222e+00 
1.099585e+00 
1.108421e+00 
1.117721e+00 
1.127479e+00 
1.137687e+00 
1.148340e+00 
1.159428e+00 
1.170945e+00 
1.182884e+00 
1.195235e+00 
1.207992e+00 
1.221147e+00 
1.234693e+00 
1.248620e+00 
1.262922e+00 
1.277591e+00 
1.292619e+00 
1.307998e+00 
1.323722e+00 
1.339781e+00 
1.356169e+00 
1.372879e+00 
1.389904e+00 
1.407235e+00 
1.424867e+00 
1.442792e+00 
1.461004e+00 
2.342503e+00 
2.316474e+00 
2.290552e+00 
2.264740e+00 
2.239042e+00 
2.213459e+00 
2.187995e+00 
2.162653e+00 
2.137436e+00 
2.112349e+00 
2.087393e+00 
2.062572e+00 
2.037891e+00 
2.013353e+00 
1.988961e+00 
1.964720e+00 
1.940634e+00 
1.916707e+00 
1.892944e+00 
1.869348e+00 
1.845924e+00 
1.822678e+00 
1.799613e+00 
1.776736e+00 
1.754050e+00 
1.731562e+00 
1.709277e+00 
1.687200e+00 
1.665338e+00 
1.643695e+00 
1.622279e+00 
1.601095e+00 
1.580149e+00 
1.559449e+00 
1.539001e+00 
1.518812e+00 
1.498888e+00 
1.479238e+00 
1.459868e+00 
1.440786e+00 
1.422000e+00 
1.403517e+00 
1.385346e+00 
1.367494e+00 
1.349970e+00 
1.332783e+00 
1.315940e+00 
1.299451e+00 
1.283324e+00 
1.267568e+00 
1.252193e+00 
1.237207e+00 
1.222620e+00 
1.208440e+00 
1.194677e+00 
1.181341e+00 
1.168441e+00 
1.155986e+00 
1.143985e+00 
1.132448e+00 
1.121385e+00 
1.110803e+00 
1.100713e+00 
1.091122e+00 
1.082041e+00 
1.073476e+00 
1.065437e+00 
1.057931e+00 
1.050963e+00 
1.044537e+00 
1.038649e+00 
1.033278e+00 
1.028383e+00 
1.023893e+00 
1.019661e+00 
1.015559e+00 
1.011569e+00 
1.007771e+00 
1.004288e+00 
1.001218e+00 
9.986238e-01 
9.965406e-01 
9.949882e-01 
9.939768e-01 
9.935108e-01 
9.935924e-01 
9.942220e-01 
9.953989e-01 
9.971219e-01 
9.993890e-01 
1.002198e+00 
1.005546e+00 
1.009429e+00 
1.013844e+00 
1.018787e+00 
1.024252e+00 
1.030235e+00 
1.036731e+00 
1.043734e+00 
1.051238e+00 
1.059236e+00 
1.067722e+00 
1.076690e+00 
1.086133e+00 
1.096043e+00 
1.106412e+00 
1.117234e+00 
1.128501e+00 
1.140204e+00 
1.152337e+00 
1.164891e+00 
1.177857e+00 
1.191229e+00 
1.204997e+00 
1.219155e+00 
1.233692e+00 
1.248602e+00 
1.263876e+00 
1.279507e+00 
1.295485e+00 
1.311804e+00 
1.328455e+00 
1.345431e+00 
1.362723e+00 
1.380325e+00 
1.398229e+00 
1.416427e+00 
1.434913e+00 
2.325282e+00 
2.299112e+00 
2.273047e+00 
2.247090e+00 
2.221243e+00 
2.195508e+00 
2.169890e+00 
2.144391e+00 
2.119014e+00 
2.093763e+00 
2.068641e+00 
2.043651e+00 
2.018798e+00 
1.994084e+00 
1.969514e+00 