# vtk DataFile Version 2.0 
Quadtree Mesh 
ASCII 
DATASET UNSTRUCTURED_GRID 
POINTS 16384 double 
-1.000000e+00 -1.000000e+00 0.000000e+00
-9.842520e-01 -1.000000e+00 0.000000e+00
-9.685039e-01 -1.000000e+00 0.000000e+00
-9.527559e-01 -1.000000e+00 0.000000e+00
-9.370079e-01 -1.000000e+00 0.000000e+00
-9.212598e-01 -1.000000e+00 0.000000e+00
-9.055118e-01 -1.000000e+00 0.000000e+00
-8.897638e-01 -1.000000e+00 0.000000e+00
-8.740157e-01 -1.000000e+00 0.000000e+00
-8.582677e-01 -1.000000e+00 0.000000e+00
-8.425197e-01 -1.000000e+00 0.000000e+00
-8.267717e-01 -1.000000e+00 0.000000e+00
-8.110236e-01 -1.000000e+00 0.000000e+00
-7.952756e-01 -1.000000e+00 0.000000e+00
-7.795276e-01 -1.000000e+00 0.000000e+00
-7.637795e-01 -1.000000e+00 0.000000e+00
-7.480315e-01 -1.000000e+00 0.000000e+00
-7.322835e-01 -1.000000e+00 0.000000e+00
-7.165354e-01 -1.000000e+00 0.000000e+00
-7.007874e-01 -1.000000e+00 0.000000e+00
-6.850394e-01 -1.000000e+00 0.000000e+00
-6.692913e-01 -1.000000e+00 0.000000e+00
-6.535433e-01 -1.000000e+00 0.000000e+00
-6.377953e-01 -1.000000e+00 0.000000e+00
-6.220472e-01 -1.000000e+00 0.000000e+00
-6.062992e-01 -1.000000e+00 0.000000e+00
-5.905512e-01 -1.000000e+00 0.000000e+00
-5.748031e-01 -1.000000e+00 0.000000e+00
-5.590551e-01 -1.000000e+00 0.000000e+00
-5.433071e-01 -1.000000e+00 0.000000e+00
-5.275591e-01 -1.000000e+00 0.000000e+00
-5.118110e-01 -1.000000e+00 0.000000e+00
-4.960630e-01 -1.000000e+00 0.000000e+00
-4.803150e-01 -1.000000e+00 0.000000e+00
-4.645669e-01 -1.000000e+00 0.000000e+00
-4.488189e-01 -1.000000e+00 0.000000e+00
-4.330709e-01 -1.000000e+00 0.000000e+00
-4.173228e-01 -1.000000e+00 0.000000e+00
-4.015748e-01 -1.000000e+00 0.000000e+00
-3.858268e-01 -1.000000e+00 0.000000e+00
-3.700787e-01 -1.000000e+00 0.000000e+00
-3.543307e-01 -1.000000e+00 0.000000e+00
-3.385827e-01 -1.000000e+00 0.000000e+00
-3.228346e-01 -1.000000e+00 0.000000e+00
-3.070866e-01 -1.000000e+00 0.000000e+00
-2.913386e-01 -1.000000e+00 0.000000e+00
-2.755906e-01 -1.000000e+00 0.000000e+00
-2.598425e-01 -1.000000e+00 0.000000e+00
-2.440945e-01 -1.000000e+00 0.000000e+00
-2.283465e-01 -1.000000e+00 0.000000e+00
-2.125984e-01 -1.000000e+00 0.000000e+00
-1.968504e-01 -1.000000e+00 0.000000e+00
-1.811024e-01 -1.000000e+00 0.000000e+00
-1.653543e-01 -1.000000e+00 0.000000e+00
-1.496063e-01 -1.000000e+00 0.000000e+00
-1.338583e-01 -1.000000e+00 0.000000e+00
-1.181102e-01 -1.000000e+00 0.000000e+00
-1.023622e-01 -1.000000e+00 0.000000e+00
-8.661417e-02 -1.000000e+00 0.000000e+00
-7.086614e-02 -1.000000e+00 0.000000e+00
-5.511811e-02 -1.000000e+00 0.000000e+00
-3.937008e-02 -1.000000e+00 0.000000e+00
-2.362205e-02 -1.000000e+00 0.000000e+00
-7.874016e-03 -1.000000e+00 0.000000e+00
7.874016e-03 -1.000000e+00 0.000000e+00
2.362205e-02 -1.000000e+00 0.000000e+00
3.937008e-02 -1.000000e+00 0.000000e+00
5.511811e-02 -1.000000e+00 0.000000e+00
7.086614e-02 -1.000000e+00 0.000000e+00
8.661417e-02 -1.000000e+00 0.000000e+00
1.023622e-01 -1.000000e+00 0.000000e+00
1.181102e-01 -1.000000e+00 0.000000e+00
1.338583e-01 -1.000000e+00 0.000000e+00
1.496063e-01 -1.000000e+00 0.000000e+00
1.653543e-01 -1.000000e+00 0.000000e+00
1.811024e-01 -1.000000e+00 0.000000e+00
1.968504e-01 -1.000000e+00 0.000000e+00
2.125984e-01 -1.000000e+00 0.000000e+00
2.283465e-01 -1.000000e+00 0.000000e+00
2.440945e-01 -1.000000e+00 0.000000e+00
2.598425e-01 -1.000000e+00 0.000000e+00
2.755906e-01 -1.000000e+00 0.000000e+00
2.913386e-01 -1.000000e+00 0.000000e+00
3.070866e-01 -1.000000e+00 0.000000e+00
3.228346e-01 -1.000000e+00 0.000000e+00
3.385827e-01 -1.000000e+00 0.000000e+00
3.543307e-01 -1.000000e+00 0.000000e+00
3.700787e-01 -1.000000e+00 0.000000e+00
3.858268e-01 -1.000000e+00 0.000000e+00
4.015748e-01 -1.000000e+00 0.000000e+00
4.173228e-01 -1.000000e+00 0.000000e+00
4.330709e-01 -1.000000e+00 0.000000e+00
4.488189e-01 -1.000000e+00 0.000000e+00
4.645669e-01 -1.000000e+00 0.000000e+00
4.803150e-01 -1.000000e+00 0.000000e+00
4.960630e-01 -1.000000e+00 0.000000e+00
5.118110e-01 -1.000000e+00 0.000000e+00
5.275591e-01 -1.000000e+00 0.000000e+00
5.433071e-01 -1.000000e+00 0.000000e+00
5.590551e-01 -1.000000e+00 0.000000e+00
5.748031e-01 -1.000000e+00 0.000000e+00
5.905512e-01 -1.000000e+00 0.000000e+00
6.062992e-01 -1.000000e+00 0.000000e+00
6.220472e-01 -1.000000e+00 0.000000e+00
6.377953e-01 -1.000000e+00 0.000000e+00
6.535433e-01 -1.000000e+00 0.000000e+00
6.692913e-01 -1.000000e+00 0.000000e+00
6.850394e-01 -1.000000e+00 0.000000e+00
7.007874e-01 -1.000000e+00 0.000000e+00
7.165354e-01 -1.000000e+00 0.000000e+00
7.322835e-01 -1.000000e+00 0.000000e+00
7.480315e-01 -1.000000e+00 0.000000e+00
7.637795e-01 -1.000000e+00 0.000000e+00
7.795276e-01 -1.000000e+00 0.000000e+00
7.952756e-01 -1.000000e+00 0.000000e+00
8.110236e-01 -1.000000e+00 0.000000e+00
8.267717e-01 -1.000000e+00 0.000000e+00
8.425197e-01 -1.000000e+00 0.000000e+00
8.582677e-01 -1.000000e+00 0.000000e+00
8.740157e-01 -1.000000e+00 0.000000e+00
8.897638e-01 -1.000000e+00 0.000000e+00
9.055118e-01 -1.000000e+00 0.000000e+00
9.212598e-01 -1.000000e+00 0.000000e+00
9.370079e-01 -1.000000e+00 0.000000e+00
9.527559e-01 -1.000000e+00 0.000000e+00
9.685039e-01 -1.000000e+00 0.000000e+00
9.842520e-01 -1.000000e+00 0.000000e+00
1.000000e+00 -1.000000e+00 0.000000e+00
-1.000000e+00 -9.842520e-01 0.000000e+00
-9.842520e-01 -9.842520e-01 0.000000e+00
-9.685039e-01 -9.842520e-01 0.000000e+00
-9.527559e-01 -9.842520e-01 0.000000e+00
-9.370079e-01 -9.842520e-01 0.000000e+00
-9.212598e-01 -9.842520e-01 0.000000e+00
-9.055118e-01 -9.842520e-01 0.000000e+00
-8.897638e-01 -9.842520e-01 0.000000e+00
-8.740157e-01 -9.842520e-01 0.000000e+00
-8.582677e-01 -9.842520e-01 0.000000e+00
-8.425197e-01 -9.842520e-01 0.000000e+00
-8.267717e-01 -9.842520e-01 0.000000e+00
-8.110236e-01 -9.842520e-01 0.000000e+00
-7.952756e-01 -9.842520e-01 0.000000e+00
-7.795276e-01 -9.842520e-01 0.000000e+00
-7.637795e-01 -9.842520e-01 0.000000e+00
-7.480315e-01 -9.842520e-01 0.000000e+00
-7.322835e-01 -9.842520e-01 0.000000e+00
-7.165354e-01 -9.842520e-01 0.000000e+00
-7.007874e-01 -9.842520e-01 0.000000e+00
-6.850394e-01 -9.842520e-01 0.000000e+00
-6.692913e-01 -9.842520e-01 0.000000e+00
-6.535433e-01 -9.842520e-01 0.000000e+00
-6.377953e-01 -9.842520e-01 0.000000e+00
-6.220472e-01 -9.842520e-01 0.000000e+00
-6.062992e-01 -9.842520e-01 0.000000e+00
-5.905512e-01 -9.842520e-01 0.000000e+00
-5.748031e-01 -9.842520e-01 0.000000e+00
-5.590551e-01 -9.842520e-01 0.000000e+00
-5.433071e-01 -9.842520e-01 0.000000e+00
-5.275591e-01 -9.842520e-01 0.000000e+00
-5.118110e-01 -9.842520e-01 0.000000e+00
-4.960630e-01 -9.842520e-01 0.000000e+00
-4.803150e-01 -9.842520e-01 0.000000e+00
-4.645669e-01 -9.842520e-01 0.000000e+00
-4.488189e-01 -9.842520e-01 0.000000e+00
-4.330709e-01 -9.842520e-01 0.000000e+00
-4.173228e-01 -9.842520e-01 0.000000e+00
-4.015748e-01 -9.842520e-01 0.000000e+00
-3.858268e-01 -9.842520e-01 0.000000e+00
-3.700787e-01 -9.842520e-01 0.000000e+00
-3.543307e-01 -9.842520e-01 0.000000e+00
-3.385827e-01 -9.842520e-01 0.000000e+00
-3.228346e-01 -9.842520e-01 0.000000e+00
-3.070866e-01 -9.842520e-01 0.000000e+00
-2.913386e-01 -9.842520e-01 0.000000e+00
-2.755906e-01 -9.842520e-01 0.000000e+00
-2.598425e-01 -9.842520e-01 0.000000e+00
-2.440945e-01 -9.842520e-01 0.000000e+00
-2.283465e-01 -9.842520e-01 0.000000e+00
-2.125984e-01 -9.842520e-01 0.000000e+00
-1.968504e-01 -9.842520e-01 0.000000e+00
-1.811024e-01 -9.842520e-01 0.000000e+00
-1.653543e-01 -9.842520e-01 0.000000e+00
-1.496063e-01 -9.842520e-01 0.000000e+00
-1.338583e-01 -9.842520e-01 0.000000e+00
-1.181102e-01 -9.842520e-01 0.000000e+00
-1.023622e-01 -9.842520e-01 0.000000e+00
-8.661417e-02 -9.842520e-01 0.000000e+00
-7.086614e-02 -9.842520e-01 0.000000e+00
-5.511811e-02 -9.842520e-01 0.000000e+00
-3.937008e-02 -9.842520e-01 0.000000e+00
-2.362205e-02 -9.842520e-01 0.000000e+00
-7.874016e-03 -9.842520e-01 0.000000e+00
7.874016e-03 -9.842520e-01 0.000000e+00
2.362205e-02 -9.842520e-01 0.000000e+00
3.937008e-02 -9.842520e-01 0.000000e+00
5.511811e-02 -9.842520e-01 0.000000e+00
7.086614e-02 -9.842520e-01 0.000000e+00
8.661417e-02 -9.842520e-01 0.000000e+00
1.023622e-01 -9.842520e-01 0.000000e+00
1.181102e-01 -9.842520e-01 0.000000e+00
1.338583e-01 -9.842520e-01 0.000000e+00
1.496063e-01 -9.842520e-01 0.000000e+00
1.653543e-01 -9.842520e-01 0.000000e+00
1.811024e-01 -9.842520e-01 0.000000e+00
1.968504e-01 -9.842520e-01 0.000000e+00
2.125984e-01 -9.842520e-01 0.000000e+00
2.283465e-01 -9.842520e-01 0.000000e+00
2.440945e-01 -9.842520e-01 0.000000e+00
2.598425e-01 -9.842520e-01 0.000000e+00
2.755906e-01 -9.842520e-01 0.000000e+00
2.913386e-01 -9.842520e-01 0.000000e+00
3.070866e-01 -9.842520e-01 0.000000e+00
3.228346e-01 -9.842520e-01 0.000000e+00
3.385827e-01 -9.842520e-01 0.000000e+00
3.543307e-01 -9.842520e-01 0.000000e+00
3.700787e-01 -9.842520e-01 0.000000e+00
3.858268e-01 -9.842520e-01 0.000000e+00
4.015748e-01 -9.842520e-01 0.000000e+00
4.173228e-01 -9.842520e-01 0.000000e+00
4.330709e-01 -9.842520e-01 0.000000e+00
4.488189e-01 -9.842520e-01 0.000000e+00
4.645669e-01 -9.842520e-01 0.000000e+00
4.803150e-01 -9.842520e-01 0.000000e+00
4.960630e-01 -9.842520e-01 0.000000e+00
5.118110e-01 -9.842520e-01 0.000000e+00
5.275591e-01 -9.842520e-01 0.000000e+00
5.433071e-01 -9.842520e-01 0.000000e+00
5.590551e-01 -9.842520e-01 0.000000e+00
5.748031e-01 -9.842520e-01 0.000000e+00
5.905512e-01 -9.842520e-01 0.000000e+00
6.062992e-01 -9.842520e-01 0.000000e+00
6.220472e-01 -9.842520e-01 0.000000e+00
6.377953e-01 -9.842520e-01 0.000000e+00
6.535433e-01 -9.842520e-01 0.000000e+00
6.692913e-01 -9.842520e-01 0.000000e+00
6.850394e-01 -9.842520e-01 0.000000e+00
7.007874e-01 -9.842520e-01 0.000000e+00
7.165354e-01 -9.842520e-01 0.000000e+00
7.322835e-01 -9.842520e-01 0.000000e+00
7.480315e-01 -9.842520e-01 0.000000e+00
7.637795e-01 -9.842520e-01 0.000000e+00
7.795276e-01 -9.842520e-01 0.000000e+00
7.952756e-01 -9.842520e-01 0.000000e+00
8.110236e-01 -9.842520e-01 0.000000e+00
[...]
POINT_DATA 16384 
SCALARS concentration double 1 
LOOKUP_TABLE default 
2.390544e+00 
2.365943e+00 
2.341467e+00 
2.317119e+00 
2.292903e+00 
2.268823e+00 
2.244880e+00 
2.221079e+00 
2.197424e+00 
2.173917e+00 
2.150562e+00 
2.127364e+00 
2.104325e+00 
2.081450e+00 
2.058742e+00 
2.036205e+00 
2.013844e+00 
1.991662e+00 
1.969664e+00 
1.947854e+00 
1.926236e+00 
1.904815e+00 
1.883595e+00 
1.862580e+00 
1.841776e+00 
1.821187e+00 
1.800817e+00 
1.780672e+00 
1.760757e+00 
1.741076e+00 
1.721634e+00 
1.702438e+00 
1.683491e+00 
1.664800e+00 
1.646369e+00 
1.628205e+00 
1.610313e+00 
1.592699e+00 
1.575367e+00 
1.558325e+00 
1.541578e+00 
1.525132e+00 
1.508992e+00 
1.493166e+00 
1.477659e+00 
1.462478e+00 
1.447628e+00 
1.433116e+00 
1.418949e+00 
1.405133e+00 
1.391673e+00 
1.378578e+00 
1.365852e+00 
1.353504e+00 
1.341538e+00 
1.329962e+00 
1.318783e+00 
1.308006e+00 
1.297637e+00 
1.287684e+00 
1.278152e+00 
1.269048e+00 
1.260378e+00 
1.252146e+00 
1.244359e+00 
1.237021e+00 
1.230136e+00 
1.223704e+00 
1.217723e+00 
1.212183e+00 
1.207061e+00 
1.202318e+00 
1.197893e+00 
1.193696e+00 
1.189624e+00 
1.185584e+00 
1.181563e+00 
1.177624e+00 
1.173852e+00 
1.170333e+00 
1.167136e+00 
1.164312e+00 
1.161893e+00 
1.159899e+00 
1.158342e+00 
1.157228e+00 
1.156564e+00 
1.156349e+00 
1.156587e+00 
1.157277e+00 
1.158418e+00 
1.160010e+00 
1.162052e+00 
1.164542e+00 
1.167477e+00 
1.170856e+00 
1.174677e+00 
1.178937e+00 
1.183634e+00 
1.188764e+00 
1.194325e+00 
1.200312e+00 
1.206722e+00 
1.213551e+00 
1.220795e+00 
1.228449e+00 
1.236511e+00 
1.244974e+00 
1.253835e+00 
1.263088e+00 
1.272729e+00 
1.282754e+00 
1.293156e+00 
1.303931e+00 
1.315074e+00 
1.326580e+00 
1.338443e+00 
1.350657e+00 
1.363219e+00 
1.376121e+00 
1.389359e+00 
1.402926e+00 
1.416819e+00 
1.431030e+00 
1.445554e+00 
1.460386e+00 
1.475520e+00 
1.490951e+00 
2.370287e+00 
2.345556e+00 
2.320950e+00 
2.296472e+00 
2.272125e+00 
2.247913e+00 
2.223839e+00 
2.199905e+00 
2.176115e+00 
2.152474e+00 
2.128984e+00 
2.105648e+00 
2.082471e+00 
2.059457e+00 
2.036608e+00 
2.013929e+00 
1.991425e+00 
1.969098e+00 
1.946953e+00 
1.924994e+00 
1.903226e+00 
1.881652e+00 
1.860278e+00 
1.839107e+00 
1.818144e+00 
1.797394e+00 
1.776862e+00 
1.756553e+00 
1.736471e+00 
1.716621e+00 
1.697009e+00 
1.677639e+00 
1.658518e+00 
1.639650e+00 
1.621041e+00 
1.602697e+00 
1.584623e+00 
1.566825e+00 
1.549308e+00 
1.532080e+00 
1.515145e+00 
1.498510e+00 
1.482181e+00 
1.466164e+00 
1.450467e+00 
1.435094e+00 
1.420053e+00 
1.405350e+00 
1.390992e+00 
1.376985e+00 
1.363336e+00 
1.350052e+00 
1.337141e+00 
1.324607e+00 
1.312459e+00 
1.300703e+00 
1.289347e+00 
1.278396e+00 
1.267857e+00 
1.257738e+00 
1.248045e+00 
1.238785e+00 
1.229963e+00 
1.221586e+00 
1.213660e+00 
1.206189e+00 
1.199178e+00 
1.192628e+00 
1.186536e+00 
1.180894e+00 
1.175679e+00 
1.170853e+00 
1.166354e+00 
1.162087e+00 
1.157943e+00 
1.153831e+00 
1.149744e+00 
1.145740e+00 
1.141899e+00 
1.138308e+00 
1.135038e+00 
1.132143e+00 
1.129657e+00 
1.127601e+00 
1.125990e+00 
1.124830e+00 
1.124127e+00 
1.123883e+00 
1.124099e+00 
1.124776e+00 
1.125913e+00 
1.127508e+00 
1.129562e+00 
1.132070e+00 
1.135030e+00 
1.138438e+00 
1.142294e+00 
1.146597e+00 
1.151343e+00 
1.156531e+00 
1.162156e+00 
1.168215e+00 
1.174703e+00 
1.181616e+00 
1.188950e+00 
1.196701e+00 
1.204862e+00 
1.213431e+00 
1.222402e+00 
1.231771e+00 
1.241532e+00 
1.251680e+00 
1.262211e+00 
1.273120e+00 
1.284400e+00 
1.296047e+00 
1.308055e+00 
1.320420e+00 
1.333135e+00 
1.346196e+00 
1.359596e+00 
1.373330e+00 
1.387392e+00 
1.401778e+00 
1.416481e+00 
1.431495e+00 
1.446815e+00 
1.462436e+00 
2.350393e+00 
2.325538e+00 
2.300806e+00 
2.276202e+00 
2.251727e+00 
2.227386e+00 
2.203180e+00 
2.179114e+00 
2.155191e+00 
2.131415e+00 
2.107787e+00 
2.084313e+00 
2.060995e+00 
2.037837e+00 
2.014844e+00 
1.992018e+00 
1.969364e+00 
1.946885e+00 
1.924586e+00 
1.902470e+00 
1.880543e+00 
1.858807e+00 
1.837269e+00 
1.815931e+00 
1.794799e+00 
1.773877e+00 
1.753171e+00 
1.732684e+00 
1.712423e+00 
1.692391e+00 
1.672594e+00 
1.653038e+00 
1.633728e+00 
1.614669e+00 
1.595866e+00 
1.577327e+00 
1.559055e+00 
1.541058e+00 
1.523341e+00 
1.505911e+00 
1.488772e+00 
1.471933e+00 
1.455399e+00 
1.439177e+00 
1.423273e+00 
1.407693e+00 
1.392446e+00 
1.377537e+00 
1.362973e+00 
1.348762e+00 
1.334910e+00 
1.321425e+00 
1.308314e+00 
1.295584e+00 
1.283241e+00 
1.271295e+00 
1.259751e+00 
1.248616e+00 
1.237899e+00 
1.227606e+00 
1.217743e+00 
1.208319e+00 
1.199340e+00 
1.190812e+00 
1.182741e+00 
1.175133e+00 
1.167991e+00 
1.161319e+00 
1.155113e+00 
1.149364e+00 
1.144053e+00 
1.139141e+00 
1.134564e+00 
1.130226e+00 
1.126016e+00 
1.121853e+00 
1.117720e+00 
1.113666e+00 
1.109770e+00 
1.106118e+00 
1.102787e+00 
1.099834e+00 
1.097295e+00 
1.095194e+00 
1.093545e+00 
1.092355e+00 
1.091631e+00 
1.091375e+00 
1.091588e+00 
1.092269e+00 
1.093419e+00 
1.095036e+00 
1.097118e+00 
1.099659e+00 
1.102651e+00 
1.106093e+00 
1.109986e+00 
1.114331e+00 
1.119129e+00 
1.124378e+00 
1.130072e+00 
1.136208e+00 
1.142780e+00 
1.149783e+00 
1.157212e+00 
1.165062e+00 
1.173327e+00 
1.182004e+00 
1.191087e+00 
1.200571e+00 
1.210451e+00 
1.220722e+00 
1.231378e+00 
1.242415e+00 
1.253828e+00 
1.265610e+00 
1.277757e+00 
1.290263e+00 
1.303123e+00 
1.316332e+00 
1.329883e+00 
1.343771e+00 
1.357992e+00 
1.372539e+00 
1.387406e+00 
1.402589e+00 
1.418081e+00 
1.433876e+00 
2.330891e+00 
2.305911e+00 
2.281053e+00 
2.256321e+00 
2.231716e+00 
2.207242e+00 
2.182903e+00 
2.158701e+00 
2.134639e+00 
2.110721e+00 
2.086950e+00 
2.063330e+00 
2.039864e+00 
2.016555e+00 
1.993407e+00 
1.970424e+00 
1.947611e+00 
1.924969e+00 
1.902505e+00 
1.880221e+00 
1.858122e+00 
1.836213e+00 
1.814497e+00 
1.792980e+00 
1.771665e+00 
1.750558e+00 
1.729663e+00 
1.708986e+00 
1.688530e+00 
1.668302e+00 
1.648307e+00 
1.628550e+00 
1.609036e+00 
1.589772e+00 
1.570762e+00 
1.552013e+00 
1.533531e+00 
1.515321e+00 
1.497391e+00 
1.479745e+00 
1.462391e+00 
1.445335e+00 
1.428584e+00 
1.412144e+00 
1.396022e+00 
1.380226e+00 
1.364762e+00 
1.349638e+00 
1.334860e+00 
1.320436e+00 
1.306373e+00 
1.292680e+00 
1.279363e+00 
1.266430e+00 
1.253888e+00 
1.241746e+00 
1.230010e+00 
1.218690e+00 
1.207791e+00 
1.197321e+00 
1.187288e+00 
1.177700e+00 
1.168562e+00 
1.159882e+00 
1.151667e+00 
1.143921e+00 
1.136650e+00 
1.129856e+00 
1.123536e+00 
1.117683e+00 
1.112276e+00 
1.107279e+00 
1.102626e+00 
1.098223e+00 
1.093964e+00 
1.089776e+00 
1.085630e+00 
1.081553e+00 
1.077622e+00 
1.073930e+00 
1.070557e+00 
1.067565e+00 
1.064993e+00 
1.062865e+00 
1.061197e+00 
1.059997e+00 
1.059271e+00 
1.059021e+00 
1.059248e+00 
1.059952e+00 
1.061132e+00 
1.062786e+00 
1.064913e+00 
1.067498e+00 
1.070526e+00 
1.073998e+00 
1.077921e+00 
1.082302e+00 
1.087148e+00 
1.092455e+00 
1.098220e+00 
1.104435e+00 
1.111095e+00 
1.118192e+00 
1.125721e+00 
1.133674e+00 
1.142048e+00 
1.150837e+00 
1.160034e+00 
1.169636e+00 
1.179636e+00 
1.190030e+00 
1.200812e+00 
1.211976e+00 
1.223519e+00 
1.235434e+00 
1.247715e+00 
1.260358e+00 
1.273357e+00 
1.286707e+00 
1.300402e+00 
1.314437e+00 
1.328806e+00 
1.343503e+00 
1.358524e+00 
1.373863e+00 
1.389513e+00 
1.405471e+00 
2.311767e+00 
2.286658e+00 
2.261668e+00 
2.236801e+00 
2.212060e+00 
2.187447e+00 
2.162965e+00 
2.138618e+00 
2.114409e+00 
2.090340e+00 
2.066416e+00 
2.042639e+00 
2.019013e+00 
1.995541e+00 
1.972228e+00 
1.949077e+00 
1.926091e+00 
1.903275e+00 
1.880633e+00 
1.858168e+00 
1.835886e+00 
1.813790e+00 
1.791885e+00 
1.770175e+00 
1.748665e+00 
1.727360e+00 
1.706265e+00 
1.685384e+00 
1.664724e+00 
1.644289e+00 
1.624084e+00 
1.604115e+00 
1.584388e+00 
1.564908e+00 
1.545682e+00 
1.526715e+00 
1.508013e+00 
1.489583e+00 
1.471431e+00 
1.453563e+00 
1.435986e+00 
1.418707e+00 
1.401733e+00 
1.385071e+00 
1.368727e+00 
1.352710e+00 
1.337025e+00 
1.321682e+00 
1.306687e+00 
1.292049e+00 
1.277774e+00 
1.263871e+00 
1.250347e+00 
1.237212e+00 
1.224471e+00 
1.212135e+00 
1.200209e+00 
1.188703e+00 
1.177625e+00 
1.166981e+00 
1.156780e+00 
1.147030e+00 
1.137737e+00 
1.128908e+00 
1.120551e+00 
1.112671e+00 
1.105273e+00 
1.098359e+00 
1.091928e+00 
1.085972e+00 
1.080472e+00 
1.075392e+00 
1.070668e+00 
1.066210e+00 
1.061921e+00 
1.057725e+00 
1.053591e+00 
1.049511e+00 
1.045565e+00 
1.041850e+00 
1.038452e+00 
1.035437e+00 
1.032845e+00 
1.030704e+00 
1.029030e+00 
1.027831e+00 
1.027114e+00 
1.026881e+00 
1.027132e+00 
1.027867e+00 
1.029086e+00 
1.030786e+00 
1.032965e+00 
1.035598e+00 
1.038663e+00 
1.042159e+00 
1.046105e+00 
1.050517e+00 
1.055405e+00 
1.060769e+00 
1.066604e+00 
1.072901e+00 
1.079652e+00 
1.086847e+00 
1.094479e+00 
1.102541e+00 
1.111027e+00 
1.119931e+00 
1.129247e+00 
1.138970e+00 
1.149094e+00 
1.159614e+00 
1.170524e+00 
1.181819e+00 
1.193493e+00 
1.205541e+00 
1.217958e+00 
1.230739e+00 
1.243876e+00 
1.257366e+00 
1.271203e+00 
1.285381e+00 
1.299895e+00 
1.314739e+00 
1.329908e+00 
1.345397e+00 
1.361200e+00 
1.377311e+00 
2.292971e+00 
2.267723e+00 
2.242593e+00 
2.217582e+00 
2.192694e+00 
2.167931e+00 
2.143297e+00 
2.118794e+00 
2.094427e+00 
2.070196e+00 
2.046107e+00 
2.022163e+00 
1.998367e+00 
1.974722e+00 
1.951232e+00 
1.927901e+00 
1.904733e+00 
1.881732e+00 
1.858902e+00 
1.836247e+00 
1.813772e+00 
1.791480e+00 
1.769377e+00 
1.747466e+00 
1.725753e+00 
1.704243e+00 
1.682941e+00 
1.661851e+00 
1.640980e+00 
1.620331e+00 
1.599912e+00 
1.579727e+00 
1.559782e+00 
1.540083e+00 
1.520636e+00 
1.501448e+00 
1.482523e+00 
1.463870e+00 
1.445494e+00 
1.427402e+00 
1.409600e+00 
1.392097e+00 
1.374899e+00 
1.358012e+00 
1.341445e+00 
1.325206e+00 
1.309301e+00 
1.293739e+00 
1.278527e+00 
1.263674e+00 
1.249187e+00 
1.235075e+00 
1.221346e+00 
1.208008e+00 
1.195070e+00 
1.182540e+00 
1.170426e+00 
1.158737e+00 
1.147480e+00 
1.136664e+00 
1.126296e+00 
1.116385e+00 
1.106938e+00 
1.097962e+00 
1.089464e+00 
1.081450e+00 
1.073925e+00 
1.066893e+00 
1.060351e+00 
1.054293e+00 
1.048701e+00 
1.043539e+00 
1.038748e+00 
1.034244e+00 
1.029934e+00 
1.025739e+00 
1.021611e+00 
1.017535e+00 
1.013584e+00 
1.009856e+00 
1.006442e+00 
1.003409e+00 
1.000803e+00 
9.986521e-01 
9.969736e-01 
9.957778e-01 
9.950705e-01 
9.948542e-01 
9.951298e-01 
9.958966e-01 
9.971534e-01 
9.988982e-01 
1.001129e+00 
1.003812e+00 
1.006917e+00 
1.010446e+00 
1.014423e+00 
1.018875e+00 
1.023815e+00 
1.029244e+00 
1.035157e+00 
1.041542e+00 
1.048388e+00 
1.055686e+00 
1.063426e+00 
1.071601e+00 
1.080203e+00 
1.089227e+00 
1.098665e+00 
1.108513e+00 
1.118765e+00 
1.129415e+00 
1.140457e+00 
1.151886e+00 
1.163696e+00 
1.175881e+00 
1.188437e+00 
1.201357e+00 
1.214636e+00 
1.228268e+00 
1.242248e+00 
1.256571e+00 
1.271230e+00 
1.286221e+00 
1.301538e+00 
1.317176e+00 
1.333128e+00 
1.349391e+00 
2.274431e+00 
2.249035e+00 
2.223755e+00 
2.198591e+00 
2.173547e+00 
2.148625e+00 
2.123829e+00 
2.099162e+00 
2.074627e+00 
2.050227e+00 
2.025966e+00 
2.001846e+00 
1.977872e+00 
1.954046e+00 
1.930373e+00 
1.906857e+00 
1.883501e+00 
1.860310e+00 
1.837287e+00 
1.814437e+00 
1.791765e+00 
1.769274e+00 
1.746969e+00 
1.724855e+00 
1.702937e+00 
1.681220e+00 
1.659708e+00 
1.638407e+00 
1.617323e+00 
1.596460e+00 
1.575824e+00 
1.555421e+00 
1.535257e+00 
1.515337e+00 
1.495668e+00 
1.476256e+00 
1.457107e+00 
1.438228e+00 
1.419626e+00 
1.401307e+00 
1.383278e+00 
1.365548e+00 
1.348122e+00 
1.331008e+00 
1.314215e+00 
1.297750e+00 
1.281622e+00 
1.265837e+00 
1.250405e+00 
1.235334e+00 
1.220632e+00 
1.206308e+00 
1.192371e+00 
1.178829e+00 
1.165690e+00 
1.152964e+00 
1.140659e+00 
1.128784e+00 
1.117346e+00 
1.106355e+00 
1.095818e+00 
1.085744e+00 
1.076140e+00 
1.067014e+00 
1.058373e+00 
1.050224e+00 
1.042570e+00 
1.035416e+00 
1.028762e+00 
1.022600e+00 
1.016914e+00 
1.011671e+00 
1.006816e+00 
1.002271e+00 
9.979446e-01 
9.937464e-01 
9.896100e-01 
9.855348e-01 
9.815832e-01 
9.778461e-01 
9.744163e-01 
9.713661e-01 
9.687439e-01 
9.665808e-01 
9.648959e-01 
9.637002e-01 
9.629999e-01 
9.627977e-01 
9.630944e-01 
9.638894e-01 
9.651813e-01 
9.669681e-01 
9.692471e-01 
9.719834e-01 
9.751448e-01 
9.787335e-01 
9.827756e-01 
9.872987e-01 
9.923174e-01 
9.978333e-01 
1.003839e+00 
1.010323e+00 
1.017274e+00 
1.024682e+00 
1.032535e+00 
1.040828e+00 
1.049551e+00 
1.058699e+00 
1.068265e+00 
1.078242e+00 
1.088626e+00 
1.099410e+00 
1.110588e+00 
1.122155e+00 
1.134104e+00 
1.146431e+00 
1.159128e+00 
1.172191e+00 
1.185614e+00 
1.199392e+00 
1.213517e+00 
1.227986e+00 
1.242793e+00 
1.257931e+00 
1.273397e+00 
1.289183e+00 
1.305285e+00 
1.321697e+00 
2.256087e+00 
2.230538e+00 
2.205100e+00 
2.179777e+00 
2.154571e+00 
2.129486e+00 
2.104524e+00 
2.079688e+00 
2.054981e+00 
2.030408e+00 
2.005970e+00 
1.981672e+00 
1.957517e+00 
1.933509e+00 
1.909651e+00 
1.885948e+00 
1.862403e+00 
1.839020e+00 
1.815803e+00 
1.792757e+00 
1.769887e+00 
1.747195e+00 
1.724688e+00 
1.702370e+00 
1.680245e+00 
1.658318e+00 
1.636595e+00 
1.615081e+00 
1.593781e+00 
1.572700e+00 
1.551844e+00 
1.531219e+00 
1.510830e+00 
1.490684e+00 
1.470787e+00 
1.451144e+00 
1.431764e+00 
1.412652e+00 
1.393816e+00 
1.375262e+00 
1.356998e+00 
1.339031e+00 
1.321370e+00 
1.304021e+00 
1.286994e+00 
1.270296e+00 
1.253935e+00 
1.237921e+00 
1.222262e+00 
1.206967e+00 
1.192044e+00 
1.177503e+00 
1.163351e+00 
1.149600e+00 
1.136256e+00 
1.123330e+00 
1.110830e+00 
1.098765e+00 
1.087143e+00 
1.075974e+00 
1.065265e+00 
1.055025e+00 
1.045263e+00 
1.035984e+00 
1.027198e+00 
1.018910e+00 
1.011126e+00 
1.003849e+00 
9.970797e-01 
9.908126e-01 
9.850324e-01 
9.797090e-01 
9.747928e-01 
9.702117e-01 
9.658718e-01 
9.616726e-01 
9.575283e-01 
9.534589e-01 
9.495102e-01 
9.457664e-01 
9.423223e-01 
9.392549e-01 
9.366170e-01 
9.344423e-01 
9.327514e-01 
9.315562e-01 
9.308632e-01 
9.306753e-01 
9.309933e-01 
9.318168e-01 
9.331442e-01 
9.349732e-01 
9.373013e-01 
9.400985e-01 
9.433376e-01 
9.470195e-01 
9.511656e-01 
9.557978e-01 
9.609275e-01 
9.665547e-01 
9.726722e-01 
9.792695e-01 
9.863355e-01 
9.938601e-01 
1.001834e+00 
1.010250e+00 
1.019100e+00 
1.028377e+00 
1.038075e+00 
1.048187e+00 
1.058708e+00 
1.069632e+00 
1.080951e+00 
1.092661e+00 
1.104755e+00 
1.117227e+00 
1.130071e+00 
1.143282e+00 
1.156853e+00 
1.170779e+00 
1.185054e+00 
1.199672e+00 
1.214627e+00 
1.229915e+00 
1.245530e+00 
1.261465e+00 
1.277716e+00 
1.294278e+00 
2.237913e+00 
2.212207e+00 
2.186610e+00 
2.161125e+00 
2.135756e+00 
2.110505e+00 
2.085375e+00 
2.060369e+00 
2.035490e+00 
2.010742e+00 
1.986127e+00 
1.961650e+00 
1.937314e+00 
1.913122e+00 
1.889078e+00 
1.865186e+00 
1.841449e+00 
1.817873e+00 
1.794460e+00 
1.771215e+00 
1.748143e+00 
1.725247e+00 
1.702533e+00 
1.680004e+00 
1.657666e+00 
1.635523e+00 
1.613581e+00 
1.591845e+00 
1.570320e+00 
1.549011e+00 
1.527925e+00 
1.507066e+00 
1.486442e+00 
1.466058e+00 
1.445921e+00 
1.426037e+00 
1.406413e+00 
1.387057e+00 
1.367975e+00 
1.349175e+00 
1.330666e+00 
1.312454e+00 
1.294548e+00 
1.276956e+00 
1.259687e+00 
1.242750e+00 
1.226153e+00 
1.209905e+00 
1.194015e+00 
1.178492e+00 
1.163347e+00 
1.148586e+00 
1.134221e+00 
1.120260e+00 
1.106713e+00 
1.093588e+00 
1.080894e+00 
1.068641e+00 
1.056838e+00 
1.045493e+00 
1.034614e+00 
1.024211e+00 
1.014291e+00 
1.004863e+00 
9.959328e-01 
9.875083e-01 
9.795949e-01 
9.721965e-01 
9.653140e-01 
9.589431e-01 
9.530707e-01 
9.476705e-01 
9.426982e-01 
9.380862e-01 
9.337406e-01 
9.295540e-01 
9.254276e-01 
9.213779e-01 
9.174392e-01 
9.136929e-01 
9.102378e-01 
9.071567e-01 
9.045067e-01 
9.023243e-01 
9.006312e-01 
8.994402e-01 
8.987579e-01 
8.985876e-01 
8.989300e-01 
8.997848e-01 
9.011502e-01 
9.030242e-01 
9.054038e-01 
9.082683e-01 
9.115984e-01 
9.153935e-01 
9.196663e-01 
9.244293e-01 
9.296884e-01 
9.354415e-01 
9.416821e-01 
9.484010e-01 
9.555889e-01 
9.632370e-01 
9.713371e-01 
9.798817e-01 
9.888636e-01 
9.982762e-01 
1.008113e+00 
1.018367e+00 
1.029032e+00 
1.040102e+00 
1.051571e+00 
1.063432e+00 
1.075678e+00 
1.088304e+00 
1.101303e+00 
1.114669e+00 
1.128396e+00 
1.142478e+00 
1.156909e+00 
1.171683e+00 
1.186795e+00 
1.202238e+00 
1.218006e+00 
1.234095e+00 
1.250499e+00 
1.267212e+00 
2.219897e+00 
2.194033e+00 
2.168276e+00 
2.142629e+00 
2.117094e+00 
2.091676e+00 
2.066376e+00 
2.041198e+00 
2.016145e+00 
1.991219e+00 
1.966425e+00 
1.941765e+00 
1.917243e+00 
1.892863e+00 
1.868627e+00 
1.844541e+00 
1.820607e+00 
1.796830e+00 
1.773213e+00 
1.749760e+00 
1.726477e+00 
1.703367e+00 
1.680435e+00 
1.657685e+00 
1.635122e+00 
1.612752e+00 
1.590578e+00 
1.568608e+00 
1.546845e+00 
1.525297e+00 
1.503968e+00 
1.482864e+00 
1.461993e+00 
1.441361e+00 
1.420974e+00 
1.400839e+00 
1.380965e+00 
1.361357e+00 
1.342025e+00 
1.322976e+00 
1.304218e+00 
1.285759e+00 
1.267609e+00 
1.249776e+00 
1.232268e+00 
1.215096e+00 
1.198267e+00 
1.181791e+00 
1.165678e+00 
1.149937e+00 
1.134577e+00 
1.119607e+00 
1.105037e+00 
1.090877e+00 
1.077134e+00 
1.063820e+00 
1.050943e+00 
1.038511e+00 
1.026535e+00 
1.015022e+00 
1.003982e+00 
9.934222e-01 
9.833520e-01 
9.737791e-01 
9.647111e-01 
9.561548e-01 
9.481162e-01 
9.405999e-01 
9.336074e-01 
9.271358e-01 
9.211744e-01 
9.157010e-01 
9.106764e-01 
9.060376e-01 
9.016938e-01 
8.975350e-01 
8.934546e-01 
8.894367e-01 
8.855128e-01 
8.817661e-01 
8.783017e-01 
8.752086e-01 
8.725483e-01 
8.703597e-01 
8.686657e-01 
8.674798e-01 
8.668088e-01 
8.666563e-01 
8.670234e-01 
8.679094e-01 
8.693130e-01 
8.712320e-01 
8.736634e-01 
8.765948e-01 
8.800147e-01 
8.839207e-01 
8.883173e-01 
8.932086e-01 
8.985952e-01 
9.044735e-01 
9.108373e-01 
9.176790e-01 
9.249910e-01 
9.327656e-01 
9.409956e-01 
9.496738e-01 
9.587935e-01 
9.683479e-01 
9.783302e-01 
9.887338e-01 
9.995521e-01 
1.010778e+00 
1.022406e+00 
1.034427e+00 
1.046837e+00 
1.059628e+00 
1.072794e+00 
1.086328e+00 
1.100223e+00 
1.114474e+00 
1.129074e+00 
1.144016e+00 
1.159295e+00 
1.174905e+00 
1.190840e+00 
1.207094e+00 
1.223661e+00 
1.240535e+00 
2.202008e+00 
2.175983e+00 
2.150063e+00 
2.124250e+00 
2.098547e+00 
2.072957e+00 
2.047483e+00 
2.022127e+00 
1.996894e+00 
1.971785e+00 
1.946804e+00 
1.921955e+00 
1.897240e+00 
1.872663e+00 
1.848228e+00 
1.823938e+00 
1.799797e+00 
1.775809e+00 
1.751979e+00 
1.728309e+00 
1.704804e+00 
1.681470e+00 
1.658310e+00 
1.635329e+00 
1.612532e+00 
1.589925e+00 
1.567512e+00 
1.545300e+00 
1.523294e+00 
1.501500e+00 
1.479924e+00 
1.458573e+00 
1.437454e+00 
1.416573e+00 
1.395938e+00 
1.375556e+00 
1.355436e+00 
1.335584e+00 
1.316010e+00 
1.296720e+00 
1.277725e+00 
1.259033e+00 
1.240651e+00 
1.222591e+00 
1.204860e+00 
1.187467e+00 
1.170423e+00 
1.153736e+00 
1.137416e+00 
1.121471e+00 
1.105912e+00 
1.090748e+00 
1.075989e+00 
1.061642e+00 
1.047719e+00 
1.034227e+00 
1.021177e+00 
1.008576e+00 
9.964355e-01 
9.847628e-01 
9.735671e-01 
9.628570e-01 
9.526409e-01 
9.429272e-01 
9.337235e-01 
9.250373e-01 
9.168748e-01 
9.092412e-01 
9.021388e-01 
8.955664e-01 
8.895156e-01 
8.839680e-01 
8.788889e-01 
8.742205e-01 
8.698763e-01 
8.657456e-01 
8.617162e-01 
8.577297e-01 
8.538169e-01 
8.500656e-01 
8.465876e-01 
8.434779e-01 
8.408025e-01 
8.386022e-01 
8.369018e-01 
8.357151e-01 
8.350498e-01 
8.349097e-01 
8.352960e-01 
8.362086e-01 
8.376459e-01 
8.396059e-01 
8.420856e-01 
8.450782e-01 
8.485766e-01 
8.525776e-01 
8.570803e-01 
8.620834e-01 
8.675841e-01 
8.735777e-01 
8.800583e-01 
8.870195e-01 
8.944545e-01 
9.023563e-01 
9.107183e-01 
9.195337e-01 
9.287956e-01 
9.384972e-01 
9.486316e-01 
9.591918e-01 
9.701710e-01 
9.815621e-01 
9.933580e-01 
1.005552e+00 
1.018136e+00 
1.031105e+00 
1.044450e+00 
1.058165e+00 
1.072243e+00 
1.086677e+00 
1.101461e+00 
1.116588e+00 
1.132051e+00 
1.147844e+00 
1.163962e+00 
1.180397e+00 
1.197144e+00 
1.214196e+00 
2.184208e+00 
2.158018e+00 
2.131931e+00 
2.105948e+00 
2.080072e+00 
2.054307e+00 
2.028654e+00 
2.003117e+00 
1.977698e+00 
1.952401e+00 
1.927228e+00 
1.902184e+00 
1.877271e+00 
1.852493e+00 
1.827852e+00 