# vtk DataFile Version 2.0 
Quadtree Mesh 
ASCII 
DATASET UNSTRUCTURED_GRID 
POINTS 16384 double 
-1.000000e+00 -1.000000e+00 0.000000e+00
-9.842520e-01 -1.000000e+00 0.000000e+00
-9.685039e-01 -1.000000e+00 0.000000e+00
-9.527559e-01 -1.000000e+00 0.000000e+00
-9.370079e-01 -1.000000e+00 0.000000e+00
-9.212598e-01 -1.000000e+00 0.000000e+00
-9.055118e-01 -1.000000e+00 0.000000e+00
-8.897638e-01 -1.000000e+00 0.000000e+00
-8.740157e-01 -1.000000e+00 0.000000e+00
-8.582677e-01 -1.000000e+00 0.000000e+00
-8.425197e-01 -1.000000e+00 0.000000e+00
-8.267717e-01 -1.000000e+00 0.000000e+00
-8.110236e-01 -1.000000e+00 0.000000e+00
-7.952756e-01 -1.000000e+00 0.000000e+00
-7.795276e-01 -1.000000e+00 0.000000e+00
-7.637795e-01 -1.000000e+00 0.000000e+00
-7.480315e-01 -1.000000e+00 0.000000e+00
-7.322835e-01 -1.000000e+00 0.000000e+00
-7.165354e-01 -1.000000e+00 0.000000e+00
-7.007874e-01 -1.000000e+00 0.000000e+00
-6.850394e-01 -1.000000e+00 0.000000e+00
-6.692913e-01 -1.000000e+00 0.000000e+00
-6.535433e-01 -1.000000e+00 0.000000e+00
-6.377953e-01 -1.000000e+00 0.000000e+00
-6.220472e-01 -1.000000e+00 0.000000e+00
-6.062992e-01 -1.000000e+00 0.000000e+00
-5.905512e-01 -1.000000e+00 0.000000e+00
-5.748031e-01 -1.000000e+00 0.000000e+00
-5.590551e-01 -1.000000e+00 0.000000e+00
-5.433071e-01 -1.000000e+00 0.000000e+00
-5.275591e-01 -1.000000e+00 0.000000e+00
-5.118110e-01 -1.000000e+00 0.000000e+00
-4.960630e-01 -1.000000e+00 0.000000e+00
-4.803150e-01 -1.000000e+00 0.000000e+00
-4.645669e-01 -1.000000e+00 0.000000e+00
-4.488189e-01 -1.000000e+00 0.000000e+00
-4.330709e-01 -1.000000e+00 0.000000e+00
-4.173228e-01 -1.000000e+00 0.000000e+00
-4.015748e-01 -1.000000e+00 0.000000e+00
-3.858268e-01 -1.000000e+00 0.000000e+00
-3.700787e-01 -1.000000e+00 0.000000e+00
-3.543307e-01 -1.000000e+00 0.000000e+00
-3.385827e-01 -1.000000e+00 0.000000e+00
-3.228346e-01 -1.000000e+00 0.000000e+00
-3.070866e-01 -1.000000e+00 0.000000e+00
-2.913386e-01 -1.000000e+00 0.000000e+00
-2.755906e-01 -1.000000e+00 0.000000e+00
-2.598425e-01 -1.000000e+00 0.000000e+00
-2.440945e-01 -1.000000e+00 0.000000e+00
-2.283465e-01 -1.000000e+00 0.000000e+00
-2.125984e-01 -1.000000e+00 0.000000e+00
-1.968504e-01 -1.000000e+00 0.000000e+00
-1.811024e-01 -1.000000e+00 0.000000e+00
-1.653543e-01 -1.000000e+00 0.000000e+00
-1.496063e-01 -1.000000e+00 0.000000e+00
-1.338583e-01 -1.000000e+00 0.000000e+00
-1.181102e-01 -1.000000e+00 0.000000e+00
-1.023622e-01 -1.000000e+00 0.000000e+00
-8.661417e-02 -1.000000e+00 0.000000e+00
-7.086614e-02 -1.000000e+00 0.000000e+00
-5.511811e-02 -1.000000e+00 0.000000e+00
-3.937008e-02 -1.000000e+00 0.000000e+00
-2.362205e-02 -1.000000e+00 0.000000e+00
-7.874016e-03 -1.000000e+00 0.000000e+00
7.874016e-03 -1.000000e+00 0.000000e+00
2.362205e-02 -1.000000e+00 0.000000e+00
3.937008e-02 -1.000000e+00 0.000000e+00
5.511811e-02 -1.000000e+00 0.000000e+00
7.086614e-02 -1.000000e+00 0.000000e+00
8.661417e-02 -1.000000e+00 0.000000e+00
1.023622e-01 -1.000000e+00 0.000000e+00
1.181102e-01 -1.000000e+00 0.000000e+00
1.338583e-01 -1.000000e+00 0.000000e+00
1.496063e-01 -1.000000e+00 0.000000e+00
1.653543e-01 -1.000000e+00 0.000000e+00
1.811024e-01 -1.000000e+00 0.000000e+00
1.968504e-01 -1.000000e+00 0.000000e+00
2.125984e-01 -1.000000e+00 0.000000e+00
2.283465e-01 -1.000000e+00 0.000000e+00
2.440945e-01 -1.000000e+00 0.000000e+00
2.598425e-01 -1.000000e+00 0.000000e+00
2.755906e-01 -1.000000e+00 0.000000e+00
2.913386e-01 -1.000000e+00 0.000000e+00
3.070866e-01 -1.000000e+00 0.000000e+00
3.228346e-01 -1.000000e+00 0.000000e+00
3.385827e-01 -1.000000e+00 0.000000e+00
3.543307e-01 -1.000000e+00 0.000000e+00
3.700787e-01 -1.000000e+00 0.000000e+00
3.858268e-01 -1.000000e+00 0.000000e+00
4.015748e-01 -1.000000e+00 0.000000e+00
4.173228e-01 -1.000000e+00 0.000000e+00
4.330709e-01 -1.000000e+00 0.000000e+00
4.488189e-01 -1.000000e+00 0.000000e+00
4.645669e-01 -1.000000e+00 0.000000e+00
4.803150e-01 -1.000000e+00 0.000000e+00
4.960630e-01 -1.000000e+00 0.000000e+00
5.118110e-01 -1.000000e+00 0.000000e+00
5.275591e-01 -1.000000e+00 0.000000e+00
5.433071e-01 -1.000000e+00 0.000000e+00
5.590551e-01 -1.000000e+00 0.000000e+00
5.748031e-01 -1.000000e+00 0.000000e+00
5.905512e-01 -1.000000e+00 0.000000e+00
6.062992e-01 -1.000000e+00 0.000000e+00
6.220472e-01 -1.000000e+00 0.000000e+00
6.377953e-01 -1.000000e+00 0.000000e+00
6.535433e-01 -1.000000e+00 0.000000e+00
6.692913e-01 -1.000000e+00 0.000000e+00
6.850394e-01 -1.000000e+00 0.000000e+00
7.007874e-01 -1.000000e+00 0.000000e+00
7.165354e-01 -1.000000e+00 0.000000e+00
7.322835e-01 -1.000000e+00 0.000000e+00
7.480315e-01 -1.000000e+00 0.000000e+00
7.637795e-01 -1.000000e+00 0.000000e+00
7.795276e-01 -1.000000e+00 0.000000e+00
7.952756e-01 -1.000000e+00 0.000000e+00
8.110236e-01 -1.000000e+00 0.000000e+00
8.267717e-01 -1.000000e+00 0.000000e+00
8.425197e-01 -1.000000e+00 0.000000e+00
8.582677e-01 -1.000000e+00 0.000000e+00
8.740157e-01 -1.000000e+00 0.000000e+00
8.897638e-01 -1.000000e+00 0.000000e+00
9.055118e-01 -1.000000e+00 0.000000e+00
9.212598e-01 -1.000000e+00 0.000000e+00
9.370079e-01 -1.000000e+00 0.000000e+00
9.527559e-01 -1.000000e+00 0.000000e+00
9.685039e-01 -1.000000e+00 0.000000e+00
9.842520e-01 -1.000000e+00 0.000000e+00
1.000000e+00 -1.000000e+00 0.000000e+00
-1.000000e+00 -9.842520e-01 0.000000e+00
-9.842520e-01 -9.842520e-01 0.000000e+00
-9.685039e-01 -9.842520e-01 0.000000e+00
-9.527559e-01 -9.842520e-01 0.000000e+00
-9.370079e-01 -9.842520e-01 0.000000e+00
-9.212598e-01 -9.842520e-01 0.000000e+00
-9.055118e-01 -9.842520e-01 0.000000e+00
-8.897638e-01 -9.842520e-01 0.000000e+00
-8.740157e-01 -9.842520e-01 0.000000e+00
-8.582677e-01 -9.842520e-01 0.000000e+00
-8.425197e-01 -9.842520e-01 0.000000e+00
-8.267717e-01 -9.842520e-01 0.000000e+00
-8.110236e-01 -9.842520e-01 0.000000e+00
-7.952756e-01 -9.842520e-01 0.000000e+00
-7.795276e-01 -9.842520e-01 0.000000e+00
-7.637795e-01 -9.842520e-01 0.000000e+00
-7.480315e-01 -9.842520e-01 0.000000e+00
-7.322835e-01 -9.842520e-01 0.000000e+00
-7.165354e-01 -9.842520e-01 0.000000e+00
-7.007874e-01 -9.842520e-01 0.000000e+00
-6.850394e-01 -9.842520e-01 0.000000e+00
-6.692913e-01 -9.842520e-01 0.000000e+00
-6.535433e-01 -9.842520e-01 0.000000e+00
-6.377953e-01 -9.842520e-01 0.000000e+00
-6.220472e-01 -9.842520e-01 0.000000e+00
-6.062992e-01 -9.842520e-01 0.000000e+00
-5.905512e-01 -9.842520e-01 0.000000e+00
-5.748031e-01 -9.842520e-01 0.000000e+00
-5.590551e-01 -9.842520e-01 0.000000e+00
-5.433071e-01 -9.842520e-01 0.000000e+00
-5.275591e-01 -9.842520e-01 0.000000e+00
-5.118110e-01 -9.842520e-01 0.000000e+00
-4.960630e-01 -9.842520e-01 0.000000e+00
-4.803150e-01 -9.842520e-01 0.000000e+00
-4.645669e-01 -9.842520e-01 0.000000e+00
-4.488189e-01 -9.842520e-01 0.000000e+00
-4.330709e-01 -9.842520e-01 0.000000e+00
-4.173228e-01 -9.842520e-01 0.000000e+00
-4.015748e-01 -9.842520e-01 0.000000e+00
-3.858268e-01 -9.842520e-01 0.000000e+00
-3.700787e-01 -9.842520e-01 0.000000e+00
-3.543307e-01 -9.842520e-01 0.000000e+00
-3.385827e-01 -9.842520e-01 0.000000e+00
-3.228346e-01 -9.842520e-01 0.000000e+00
-3.070866e-01 -9.842520e-01 0.000000e+00
-2.913386e-01 -9.842520e-01 0.000000e+00
-2.755906e-01 -9.842520e-01 0.000000e+00
-2.598425e-01 -9.842520e-01 0.000000e+00
-2.440945e-01 -9.842520e-01 0.000000e+00
-2.283465e-01 -9.842520e-01 0.000000e+00
-2.125984e-01 -9.842520e-01 0.000000e+00
-1.968504e-01 -9.842520e-01 0.000000e+00
-1.811024e-01 -9.842520e-01 0.000000e+00
-1.653543e-01 -9.842520e-01 0.000000e+00
-1.496063e-01 -9.842520e-01 0.000000e+00
-1.338583e-01 -9.842520e-01 0.000000e+00
-1.181102e-01 -9.842520e-01 0.000000e+00
-1.023622e-01 -9.842520e-01 0.000000e+00
-8.661417e-02 -9.842520e-01 0.000000e+00
-7.086614e-02 -9.842520e-01 0.000000e+00
-5.511811e-02 -9.842520e-01 0.000000e+00
-3.937008e-02 -9.842520e-01 0.000000e+00
-2.362205e-02 -9.842520e-01 0.000000e+00
-7.874016e-03 -9.842520e-01 0.000000e+00
7.874016e-03 -9.842520e-01 0.000000e+00
2.362205e-02 -9.842520e-01 0.000000e+00
3.937008e-02 -9.842520e-01 0.000000e+00
5.511811e-02 -9.842520e-01 0.000000e+00
7.086614e-02 -9.842520e-01 0.000000e+00
8.661417e-02 -9.842520e-01 0.000000e+00
1.023622e-01 -9.842520e-01 0.000000e+00
1.181102e-01 -9.842520e-01 0.000000e+00
1.338583e-01 -9.842520e-01 0.000000e+00
1.496063e-01 -9.842520e-01 0.000000e+00
1.653543e-01 -9.842520e-01 0.000000e+00
1.811024e-01 -9.842520e-01 0.000000e+00
1.968504e-01 -9.842520e-01 0.000000e+00
2.125984e-01 -9.842520e-01 0.000000e+00
2.283465e-01 -9.842520e-01 0.000000e+00
2.440945e-01 -9.842520e-01 0.000000e+00
2.598425e-01 -9.842520e-01 0.000000e+00
2.755906e-01 -9.842520e-01 0.000000e+00
2.913386e-01 -9.842520e-01 0.000000e+00
3.070866e-01 -9.842520e-01 0.000000e+00
3.228346e-01 -9.842520e-01 0.000000e+00
3.385827e-01 -9.842520e-01 0.000000e+00
3.543307e-01 -9.842520e-01 0.000000e+00
3.700787e-01 -9.842520e-01 0.000000e+00
3.858268e-01 -9.842520e-01 0.000000e+00
4.015748e-01 -9.842520e-01 0.000000e+00
4.173228e-01 -9.842520e-01 0.000000e+00
4.330709e-01 -9.842520e-01 0.000000e+00
4.488189e-01 -9.842520e-01 0.000000e+00
4.645669e-01 -9.842520e-01 0.000000e+00
4.803150e-01 -9.842520e-01 0.000000e+00
4.960630e-01 -9.842520e-01 0.000000e+00
5.118110e-01 -9.842520e-01 0.000000e+00
5.275591e-01 -9.842520e-01 0.000000e+00
5.433071e-01 -9.842520e-01 0.000000e+00
5.590551e-01 -9.842520e-01 0.000000e+00
5.748031e-01 -9.842520e-01 0.000000e+00
5.905512e-01 -9.842520e-01 0.000000e+00
6.062992e-01 -9.842520e-01 0.000000e+00
6.220472e-01 -9.842520e-01 0.000000e+00
6.377953e-01 -9.842520e-01 0.000000e+00
6.535433e-01 -9.842520e-01 0.000000e+00
6.692913e-01 -9.842520e-01 0.000000e+00
6.850394e-01 -9.842520e-01 0.000000e+00
7.007874e-01 -9.842520e-01 0.000000e+00
7.165354e-01 -9.842520e-01 0.000000e+00
7.322835e-01 -9.842520e-01 0.000000e+00
7.480315e-01 -9.842520e-01 0.000000e+00
7.637795e-01 -9.842520e-01 0.000000e+00
7.795276e-01 -9.842520e-01 0.000000e+00
7.952756e-01 -9.842520e-01 0.000000e+00
8.110236e-01 -9.842520e-01 0.000000e+00
[...]
POINT_DATA 16384 
SCALARS concentration double 1 
LOOKUP_TABLE default 
2.668650e+00 
2.644128e+00 
2.619729e+00 
2.595457e+00 
2.571314e+00 
2.547305e+00 
2.523431e+00 
2.499695e+00 
2.476102e+00 
2.452655e+00 
2.429357e+00 
2.406211e+00 
2.383221e+00 
2.360391e+00 
2.337725e+00 
2.315227e+00 
2.292900e+00 
2.270748e+00 
2.248776e+00 
2.226989e+00 
2.205390e+00 
2.183984e+00 
2.162775e+00 
2.141768e+00 
2.120969e+00 
2.100381e+00 
2.080010e+00 
2.059861e+00 
2.039939e+00 
2.020249e+00 
2.000798e+00 
1.981589e+00 
1.962629e+00 
1.943924e+00 
1.925479e+00 
1.907301e+00 
1.889394e+00 
1.871766e+00 
1.854422e+00 
1.837369e+00 
1.820612e+00 
1.804159e+00 
1.788016e+00 
1.772189e+00 
1.756684e+00 
1.741509e+00 
1.726670e+00 
1.712174e+00 
1.698026e+00 
1.684235e+00 
1.670806e+00 
1.657747e+00 
1.645064e+00 
1.632763e+00 
1.620852e+00 
1.609336e+00 
1.598223e+00 
1.587518e+00 
1.577228e+00 
1.567359e+00 
1.557917e+00 
1.548908e+00 
1.540337e+00 
1.532211e+00 
1.524534e+00 
1.517311e+00 
1.510548e+00 
1.504249e+00 
1.498418e+00 
1.493058e+00 
1.488161e+00 
1.483699e+00 
1.479584e+00 
1.475643e+00 
1.471878e+00 
1.468457e+00 
1.465467e+00 
1.462939e+00 
1.460886e+00 
1.459311e+00 
1.458216e+00 
1.457603e+00 
1.457470e+00 
1.457819e+00 
1.458648e+00 
1.459957e+00 
1.461744e+00 
1.464008e+00 
1.466747e+00 
1.469959e+00 
1.473641e+00 
1.477791e+00 
1.482406e+00 
1.487482e+00 
1.493015e+00 
1.499003e+00 
1.505440e+00 
1.512323e+00 
1.519647e+00 
1.527408e+00 
1.535600e+00 
1.544219e+00 
1.553259e+00 
1.562716e+00 
1.572583e+00 
1.582855e+00 
1.593526e+00 
1.604592e+00 
1.616044e+00 
1.627879e+00 
1.640090e+00 
1.652670e+00 
1.665614e+00 
1.678916e+00 
1.692569e+00 
1.706568e+00 
1.720906e+00 
1.735577e+00 
1.750576e+00 
1.765895e+00 
1.781529e+00 
1.797473e+00 
1.813719e+00 
1.830263e+00 
1.847097e+00 
1.864217e+00 
1.881617e+00 
1.899291e+00 
2.649072e+00 
2.624397e+00 
2.599845e+00 
2.575418e+00 
2.551119e+00 
2.526951e+00 
2.502917e+00 
2.479021e+00 
2.455265e+00 
2.431653e+00 
2.408189e+00 
2.384875e+00 
2.361717e+00 
2.338716e+00 
2.315878e+00 
2.293206e+00 
2.270704e+00 
2.248376e+00 
2.226227e+00 
2.204260e+00 
2.182481e+00 
2.160893e+00 
2.139502e+00 
2.118311e+00 
2.097326e+00 
2.076553e+00 
2.055995e+00 
2.035658e+00 
2.015547e+00 
1.995668e+00 
1.976026e+00 
1.956627e+00 
1.937476e+00 
1.918580e+00 
1.899943e+00 
1.881573e+00 
1.863474e+00 
1.845654e+00 
1.828119e+00 
1.810875e+00 
1.793928e+00 
1.777285e+00 
1.760953e+00 
1.744938e+00 
1.729247e+00 
1.713887e+00 
1.698865e+00 
1.684186e+00 
1.669859e+00 
1.655891e+00 
1.642287e+00 
1.629055e+00 
1.616203e+00 
1.603736e+00 
1.591661e+00 
1.579986e+00 
1.568717e+00 
1.557861e+00 
1.547424e+00 
1.537412e+00 
1.527832e+00 
1.518690e+00 
1.509992e+00 
1.501744e+00 
1.493950e+00 
1.486618e+00 
1.479751e+00 
1.473354e+00 
1.467432e+00 
1.461988e+00 
1.457016e+00 
1.452491e+00 
1.448334e+00 
1.444381e+00 
1.440581e+00 
1.437116e+00 
1.434081e+00 
1.431514e+00 
1.429428e+00 
1.427827e+00 
1.426714e+00 
1.426090e+00 
1.425954e+00 
1.426307e+00 
1.427148e+00 
1.428476e+00 
1.430289e+00 
1.432587e+00 
1.435367e+00 
1.438627e+00 
1.442365e+00 
1.446577e+00 
1.451260e+00 
1.456411e+00 
1.462027e+00 
1.468103e+00 
1.474635e+00 
1.481619e+00 
1.489050e+00 
1.496923e+00 
1.505233e+00 
1.513975e+00 
1.523144e+00 
1.532733e+00 
1.542738e+00 
1.553152e+00 
1.563970e+00 
1.575186e+00 
1.586792e+00 
1.598785e+00 
1.611156e+00 
1.623900e+00 
1.637011e+00 
1.650482e+00 
1.664307e+00 
1.678480e+00 
1.692994e+00 
1.707844e+00 
1.723022e+00 
1.738522e+00 
1.754339e+00 
1.770466e+00 
1.786896e+00 
1.803625e+00 
1.820646e+00 
1.837952e+00 
1.855539e+00 
1.873399e+00 
2.629685e+00 
2.604859e+00 
2.580153e+00 
2.555570e+00 
2.531114e+00 
2.506787e+00 
2.482593e+00 
2.458534e+00 
2.434615e+00 
2.410838e+00 
2.387207e+00 
2.363725e+00 
2.340396e+00 
2.317224e+00 
2.294212e+00 
2.271365e+00 
2.248687e+00 
2.226182e+00 
2.203853e+00 
2.181706e+00 
2.159744e+00 
2.137973e+00 
2.116397e+00 
2.095021e+00 
2.073849e+00 
2.052887e+00 
2.032140e+00 
2.011613e+00 
1.991311e+00 
1.971240e+00 
1.951405e+00 
1.931813e+00 
1.912468e+00 
1.893377e+00 
1.874546e+00 
1.855980e+00 
1.837687e+00 
1.819672e+00 
1.801942e+00 
1.784503e+00 
1.767362e+00 
1.750526e+00 
1.734001e+00 
1.717794e+00 
1.701912e+00 
1.686362e+00 
1.671152e+00 
1.656287e+00 
1.641776e+00 
1.627625e+00 
1.613842e+00 
1.600433e+00 
1.587406e+00 
1.574768e+00 
1.562525e+00 
1.550686e+00 
1.539256e+00 
1.528243e+00 
1.517654e+00 
1.507495e+00 
1.497772e+00 
1.488492e+00 
1.479662e+00 
1.471287e+00 
1.463373e+00 
1.455926e+00 
1.448951e+00 
1.442453e+00 
1.436436e+00 
1.430904e+00 
1.425853e+00 
1.421261e+00 
1.417058e+00 
1.413080e+00 
1.409235e+00 
1.405718e+00 
1.402632e+00 
1.400020e+00 
1.397895e+00 
1.396263e+00 
1.395126e+00 
1.394485e+00 
1.394341e+00 
1.394693e+00 
1.395540e+00 
1.396882e+00 
1.398718e+00 
1.401046e+00 
1.403863e+00 
1.407168e+00 
1.410958e+00 
1.415229e+00 
1.419980e+00 
1.425206e+00 
1.430903e+00 
1.437067e+00 
1.443694e+00 
1.450780e+00 
1.458318e+00 
1.466306e+00 
1.474736e+00 
1.483604e+00 
1.492904e+00 
1.502630e+00 
1.512777e+00 
1.523338e+00 
1.534308e+00 
1.545679e+00 
1.557446e+00 
1.569602e+00 
1.582141e+00 
1.595056e+00 
1.608341e+00 
1.621989e+00 
1.635993e+00 
1.650348e+00 
1.665046e+00 
1.680081e+00 
1.695447e+00 
1.711137e+00 
1.727144e+00 
1.743462e+00 
1.760086e+00 
1.777007e+00 
1.794222e+00 
1.811722e+00 
1.829503e+00 
1.847559e+00 
2.610494e+00 
2.585515e+00 
2.560654e+00 
2.535916e+00 
2.511302e+00 
2.486816e+00 
2.462461e+00 
2.438239e+00 
2.414156e+00 
2.390212e+00 
2.366413e+00 
2.342762e+00 
2.319262e+00 
2.295917e+00 
2.272731e+00 
2.249708e+00 
2.226852e+00 
2.204167e+00 
2.181658e+00 
2.159328e+00 
2.137183e+00 
2.115226e+00 
2.093463e+00 
2.071899e+00 
2.050538e+00 
2.029385e+00 
2.008446e+00 
1.987726e+00 
1.967230e+00 
1.946964e+00 
1.926934e+00 
1.907145e+00 
1.887602e+00 
1.868313e+00 
1.849283e+00 
1.830519e+00 
1.812026e+00 
1.793812e+00 
1.775882e+00 
1.758244e+00 
1.740904e+00 
1.723869e+00 
1.707146e+00 
1.690742e+00 
1.674664e+00 
1.658919e+00 
1.643514e+00 
1.628458e+00 
1.613756e+00 
1.599416e+00 
1.585447e+00 
1.571854e+00 
1.558646e+00 
1.545829e+00 
1.533412e+00 
1.521401e+00 
1.509804e+00 
1.498627e+00 
1.487878e+00 
1.477564e+00 
1.467692e+00 
1.458268e+00 
1.449298e+00 
1.440790e+00 
1.432749e+00 
1.425181e+00 
1.418091e+00 
1.411486e+00 
1.405369e+00 
1.399745e+00 
1.394609e+00 
1.389944e+00 
1.385681e+00 
1.381650e+00 
1.377742e+00 
1.374159e+00 
1.371011e+00 
1.368342e+00 
1.366167e+00 
1.364493e+00 
1.363321e+00 
1.362654e+00 
1.362491e+00 
1.362832e+00 
1.363677e+00 
1.365024e+00 
1.366874e+00 
1.369223e+00 
1.372070e+00 
1.375414e+00 
1.379250e+00 
1.383576e+00 
1.388389e+00 
1.393685e+00 
1.399461e+00 
1.405711e+00 
1.412431e+00 
1.419617e+00 
1.427264e+00 
1.435365e+00 
1.443917e+00 
1.452913e+00 
1.462347e+00 
1.472214e+00 
1.482506e+00 
1.493219e+00 
1.504345e+00 
1.515878e+00 
1.527812e+00 
1.540139e+00 
1.552853e+00 
1.565947e+00 
1.579415e+00 
1.593249e+00 
1.607443e+00 
1.621989e+00 
1.636882e+00 
1.652114e+00 
1.667678e+00 
1.683569e+00 
1.699778e+00 
1.716300e+00 
1.733127e+00 
1.750254e+00 
1.767674e+00 
1.785381e+00 
1.803369e+00 
1.821630e+00 
2.591499e+00 
2.566367e+00 
2.541352e+00 
2.516457e+00 
2.491685e+00 
2.467038e+00 
2.442521e+00 
2.418136e+00 
2.393887e+00 
2.369776e+00 
2.345808e+00 
2.321985e+00 
2.298313e+00 
2.274793e+00 
2.251431e+00 
2.228230e+00 
2.205195e+00 
2.182328e+00 
2.159636e+00 
2.137122e+00 
2.114790e+00 
2.092645e+00 
2.070693e+00 
2.048937e+00 
2.027383e+00 
2.006037e+00 
1.984902e+00 
1.963985e+00 
1.943291e+00 
1.922826e+00 
1.902594e+00 
1.882604e+00 
1.862859e+00 
1.843366e+00 
1.824132e+00 
1.805162e+00 
1.786464e+00 
1.768044e+00 
1.749908e+00 
1.732063e+00 
1.714517e+00 
1.697275e+00 
1.680346e+00 
1.663736e+00 
1.647454e+00 
1.631505e+00 
1.615897e+00 
1.600639e+00 
1.585737e+00 
1.571200e+00 
1.557034e+00 
1.543247e+00 
1.529848e+00 
1.516843e+00 
1.504240e+00 
1.492048e+00 
1.480272e+00 
1.468922e+00 
1.458004e+00 
1.447525e+00 
1.437493e+00 
1.427915e+00 
1.418797e+00 
1.410146e+00 
1.401969e+00 
1.394272e+00 
1.387060e+00 
1.380340e+00 
1.374116e+00 
1.368391e+00 
1.363164e+00 
1.358414e+00 
1.354070e+00 
1.349948e+00 
1.345953e+00 
1.342289e+00 
1.339065e+00 
1.336325e+00 
1.334087e+00 
1.332357e+00 
1.331139e+00 
1.330432e+00 
1.330239e+00 
1.330559e+00 
1.331391e+00 
1.332735e+00 
1.334589e+00 
1.336953e+00 
1.339823e+00 
1.343198e+00 
1.347075e+00 
1.351450e+00 
1.356321e+00 
1.361684e+00 
1.367533e+00 
1.373866e+00 
1.380678e+00 
1.387962e+00 
1.395715e+00 
1.403931e+00 
1.412604e+00 
1.421728e+00 
1.431297e+00 
1.441305e+00 
1.451745e+00 
1.462612e+00 
1.473897e+00 
1.485596e+00 
1.497700e+00 
1.510202e+00 
1.523097e+00 
1.536376e+00 
1.550032e+00 
1.564059e+00 
1.578450e+00 
1.593196e+00 
1.608292e+00 
1.623730e+00 
1.639503e+00 
1.655603e+00 
1.672025e+00 
1.688761e+00 
1.705805e+00 
1.723149e+00 
1.740788e+00 
1.758713e+00 
1.776920e+00 
1.795402e+00 
2.572695e+00 
2.547409e+00 
2.522238e+00 
2.497185e+00 
2.472253e+00 
2.447445e+00 
2.422764e+00 
2.398214e+00 
2.373797e+00 
2.349517e+00 
2.325377e+00 
2.301381e+00 
2.277533e+00 
2.253837e+00 
2.230295e+00 
2.206913e+00 
2.183694e+00 
2.160643e+00 
2.137763e+00 
2.115060e+00 
2.092537e+00 
2.070200e+00 
2.048052e+00 
2.026100e+00 
2.004348e+00 
1.982801e+00 
1.961465e+00 
1.940344e+00 
1.919445e+00 
1.898773e+00 
1.878333e+00 
1.858133e+00 
1.838177e+00 
1.818472e+00 
1.799025e+00 
1.779841e+00 
1.760927e+00 
1.742291e+00 
1.723938e+00 
1.705876e+00 
1.688112e+00 
1.670653e+00 
1.653506e+00 
1.636679e+00 
1.620179e+00 
1.604014e+00 
1.588192e+00 
1.572719e+00 
1.557605e+00 
1.542856e+00 
1.528482e+00 
1.514489e+00 
1.500885e+00 
1.487679e+00 
1.474879e+00 
1.462493e+00 
1.450527e+00 
1.438991e+00 
1.427892e+00 
1.417238e+00 
1.407035e+00 
1.397292e+00 
1.388016e+00 
1.379213e+00 
1.370891e+00 
1.363055e+00 
1.355713e+00 
1.348870e+00 
1.342531e+00 
1.336699e+00 
1.331371e+00 
1.326524e+00 
1.322078e+00 
1.317843e+00 
1.313751e+00 
1.309997e+00 
1.306688e+00 
1.303870e+00 
1.301562e+00 
1.299770e+00 
1.298498e+00 
1.297748e+00 
1.297521e+00 
1.297815e+00 
1.298632e+00 
1.299970e+00 
1.301828e+00 
1.304204e+00 
1.307096e+00 
1.310502e+00 
1.314419e+00 
1.318843e+00 
1.323772e+00 
1.329200e+00 
1.335125e+00 
1.341540e+00 
1.348442e+00 
1.355825e+00 
1.363684e+00 
1.372013e+00 
1.380806e+00 
1.390057e+00 
1.399760e+00 
1.409908e+00 
1.420494e+00 
1.431513e+00 
1.442957e+00 
1.454818e+00 
1.467091e+00 
1.479767e+00 
1.492840e+00 
1.506302e+00 
1.520146e+00 
1.534364e+00 
1.548950e+00 
1.563896e+00 
1.579194e+00 
1.594838e+00 
1.610819e+00 
1.627132e+00 
1.643768e+00 
1.660721e+00 
1.677983e+00 
1.695548e+00 
1.713408e+00 
1.731558e+00 
1.749990e+00 
1.768697e+00 
2.554056e+00 
2.528613e+00 
2.503283e+00 
2.478070e+00 
2.452975e+00 
2.428001e+00 
2.403153e+00 
2.378433e+00 
2.353844e+00 
2.329390e+00 
2.305075e+00 
2.280901e+00 
2.256872e+00 
2.232992e+00 
2.209266e+00 
2.185696e+00 
2.162288e+00 
2.139044e+00 
2.115971e+00 
2.093071e+00 
2.070349e+00 
2.047811e+00 
2.025461e+00 
2.003303e+00 
1.981344e+00 
1.959587e+00 
1.938039e+00 
1.916705e+00 
1.895590e+00 
1.874700e+00 
1.854042e+00 
1.833620e+00 
1.813442e+00 
1.793513e+00 
1.773840e+00 
1.754430e+00 
1.735289e+00 
1.716424e+00 
1.697842e+00 
1.679550e+00 
1.661556e+00 
1.643866e+00 
1.626489e+00 
1.609432e+00 
1.592703e+00 
1.576309e+00 
1.560259e+00 
1.544561e+00 
1.529222e+00 
1.514251e+00 
1.499656e+00 
1.485446e+00 
1.471628e+00 
1.458211e+00 
1.445204e+00 
1.432614e+00 
1.420450e+00 
1.408720e+00 
1.397432e+00 
1.386594e+00 
1.376214e+00 
1.366299e+00 
1.356858e+00 
1.347898e+00 
1.339425e+00 
1.331446e+00 
1.323969e+00 
1.316999e+00 
1.310541e+00 
1.304597e+00 
1.299163e+00 
1.294213e+00 
1.289662e+00 
1.285335e+00 
1.281163e+00 
1.277331e+00 
1.273945e+00 
1.271056e+00 
1.268683e+00 
1.266837e+00 
1.265519e+00 
1.264734e+00 
1.264480e+00 
1.264758e+00 
1.265568e+00 
1.266909e+00 
1.268779e+00 
1.271176e+00 
1.274099e+00 
1.277544e+00 
1.281509e+00 
1.285990e+00 
1.290983e+00 
1.296483e+00 
1.302488e+00 
1.308991e+00 
1.315987e+00 
1.323472e+00 
1.331439e+00 
1.339882e+00 
1.348796e+00 
1.358173e+00 
1.368008e+00 
1.378294e+00 
1.389024e+00 
1.400190e+00 
1.411787e+00 
1.423806e+00 
1.436240e+00 
1.449082e+00 
1.462325e+00 
1.475961e+00 
1.489983e+00 
1.504383e+00 
1.519153e+00 
1.534287e+00 
1.549777e+00 
1.565615e+00 
1.581794e+00 
1.598306e+00 
1.615145e+00 
1.632302e+00 
1.649772e+00 
1.667546e+00 
1.685618e+00 
1.703981e+00 
1.722628e+00 
1.741552e+00 
2.535508e+00 
2.509903e+00 
2.484409e+00 
2.459028e+00 
2.433764e+00 
2.408619e+00 
2.383597e+00 
2.358700e+00 
2.333932e+00 
2.309297e+00 
2.284798e+00 
2.260437e+00 
2.236220e+00 
2.212149e+00 
2.188228e+00 
2.164462e+00 
2.140855e+00 
2.117410e+00 
2.094133e+00 
2.071026e+00 
2.048096e+00 
2.025347e+00 
2.002783e+00 
1.980410e+00 
1.958232e+00 
1.936255e+00 
1.914485e+00 
1.892927e+00 
1.871585e+00 
1.850468e+00 
1.829579e+00 
1.808927e+00 
1.788515e+00 
1.768353e+00 
1.748444e+00 
1.728798e+00 
1.709420e+00 
1.690317e+00 
1.671497e+00 
1.652967e+00 
1.634735e+00 
1.616808e+00 
1.599193e+00 
1.581900e+00 
1.564935e+00 
1.548308e+00 
1.532025e+00 
1.516096e+00 
1.500529e+00 
1.485333e+00 
1.470515e+00 
1.456085e+00 
1.442051e+00 
1.428422e+00 
1.415207e+00 
1.402414e+00 
1.390051e+00 
1.378127e+00 
1.366651e+00 
1.355631e+00 
1.345075e+00 
1.334991e+00 
1.325387e+00 
1.316270e+00 
1.307649e+00 
1.299530e+00 
1.291919e+00 
1.284824e+00 
1.278249e+00 
1.272195e+00 
1.266658e+00 
1.261610e+00 
1.256978e+00 
1.252618e+00 
1.248412e+00 
1.244532e+00 
1.241092e+00 
1.238149e+00 
1.235731e+00 
1.233847e+00 
1.232501e+00 
1.231697e+00 
1.231434e+00 
1.231713e+00 
1.232533e+00 
1.233892e+00 
1.235790e+00 
1.238224e+00 
1.241192e+00 
1.244690e+00 
1.248716e+00 
1.253265e+00 
1.258334e+00 
1.263917e+00 
1.270011e+00 
1.276610e+00 
1.283709e+00 
1.291302e+00 
1.299382e+00 
1.307945e+00 
1.316983e+00 
1.326489e+00 
1.336458e+00 
1.346881e+00 
1.357752e+00 
1.369065e+00 
1.380810e+00 
1.392982e+00 
1.405572e+00 
1.418573e+00 
1.431977e+00 
1.445778e+00 
1.459967e+00 
1.474536e+00 
1.489479e+00 
1.504787e+00 
1.520452e+00 
1.536469e+00 
1.552828e+00 
1.569523e+00 
1.586545e+00 
1.603889e+00 
1.621546e+00 
1.639509e+00 
1.657772e+00 
1.676327e+00 
1.695168e+00 
1.714287e+00 
2.516913e+00 
2.491138e+00 
2.465472e+00 
2.439917e+00 
2.414475e+00 
2.389151e+00 
2.363947e+00 
2.338866e+00 
2.313911e+00 
2.289086e+00 
2.264395e+00 
2.239840e+00 
2.215425e+00 
2.191155e+00 
2.167033e+00 
2.143063e+00 
2.119249e+00 
2.095595e+00 
2.072106e+00 
2.048786e+00 
2.025641e+00 
2.002674e+00 
1.979890e+00 
1.957295e+00 
1.934894e+00 
1.912692e+00 
1.890695e+00 
1.868908e+00 
1.847337e+00 
1.825988e+00 
1.804868e+00 
1.783982e+00 
1.763336e+00 
1.742939e+00 
1.722795e+00 
1.702913e+00 
1.683299e+00 
1.663961e+00 
1.644906e+00 
1.626141e+00 
1.607674e+00 
1.589514e+00 
1.571667e+00 
1.554143e+00 
1.536950e+00 
1.520095e+00 
1.503587e+00 
1.487435e+00 
1.471648e+00 
1.456234e+00 
1.441203e+00 
1.426562e+00 
1.412321e+00 
1.398489e+00 
1.385075e+00 
1.372087e+00 
1.359535e+00 
1.347427e+00 
1.335772e+00 
1.324578e+00 
1.313854e+00 
1.303609e+00 
1.293849e+00 
1.284585e+00 
1.275822e+00 
1.267568e+00 
1.259831e+00 
1.252617e+00 
1.245930e+00 
1.239773e+00 
1.234141e+00 
1.229013e+00 
1.224333e+00 
1.219988e+00 
1.215809e+00 
1.211916e+00 
1.208444e+00 
1.205468e+00 
1.203021e+00 
1.201116e+00 
1.199760e+00 
1.198953e+00 
1.198697e+00 
1.198992e+00 
1.199836e+00 
1.201228e+00 
1.203167e+00 
1.205651e+00 
1.208676e+00 
1.212239e+00 
1.216337e+00 
1.220966e+00 
1.226121e+00 
1.231798e+00 
1.237991e+00 
1.244696e+00 
1.251905e+00 
1.259614e+00 
1.267817e+00 
1.276505e+00 
1.285674e+00 
1.295315e+00 
1.305423e+00 
1.315988e+00 
1.327006e+00 
1.338467e+00 
1.350364e+00 
1.362690e+00 
1.375436e+00 
1.388596e+00 
1.402161e+00 
1.416124e+00 
1.430477e+00 
1.445211e+00 
1.460320e+00 
1.475796e+00 
1.491630e+00 
1.507816e+00 
1.524345e+00 
1.541210e+00 
1.558404e+00 
1.575920e+00 
1.593749e+00 
1.611885e+00 
1.630321e+00 
1.649050e+00 
1.668064e+00 
1.687358e+00 
2.498114e+00 
2.472164e+00 
2.446321e+00 
2.420587e+00 
2.394965e+00 
2.369457e+00 
2.344068e+00 
2.318799e+00 
2.293655e+00 
2.268639e+00 
2.243754e+00 
2.219003e+00 
2.194391e+00 
2.169921e+00 
2.145598e+00 
2.121424e+00 
2.097405e+00 
2.073545e+00 
2.049847e+00 
2.026318e+00 
2.002960e+00 
1.979780e+00 
1.956782e+00 
1.933972e+00 
1.911354e+00 
1.888934e+00 
1.866717e+00 
1.844711e+00 
1.822919e+00 
1.801349e+00 
1.780007e+00 
1.758899e+00 
1.738031e+00 
1.717411e+00 
1.697045e+00 
1.676940e+00 
1.657104e+00 
1.637544e+00 
1.618267e+00 
1.599282e+00 
1.580596e+00 
1.562217e+00 
1.544154e+00 
1.526414e+00 
1.509006e+00 
1.491939e+00 
1.475220e+00 
1.458861e+00 
1.442868e+00 
1.427250e+00 
1.412018e+00 
1.397180e+00 
1.382745e+00 
1.368722e+00 
1.355120e+00 
1.341949e+00 
1.329218e+00 
1.316935e+00 
1.305110e+00 
1.293752e+00 
1.282868e+00 
1.272468e+00 
1.262561e+00 
1.253154e+00 
1.244255e+00 
1.235873e+00 
1.228013e+00 
1.220684e+00 
1.213890e+00 
1.207634e+00 
1.201915e+00 
1.196720e+00 
1.192008e+00 
1.187687e+00 
1.183580e+00 
1.179693e+00 
1.176200e+00 
1.173198e+00 
1.170731e+00 
1.168814e+00 
1.167453e+00 
1.166651e+00 
1.166408e+00 
1.166725e+00 
1.167599e+00 
1.169031e+00 
1.171017e+00 
1.173556e+00 
1.176644e+00 
1.180279e+00 
1.184456e+00 
1.189170e+00 
1.194419e+00 
1.200196e+00 
1.206495e+00 
1.213312e+00 
1.220641e+00 
1.228474e+00 
1.236806e+00 
1.245629e+00 
1.254937e+00 
1.264722e+00 
1.274977e+00 
1.285694e+00 
1.296866e+00 
1.308484e+00 
1.320542e+00 
1.333031e+00 
1.345942e+00 
1.359269e+00 
1.373003e+00 
1.387136e+00 
1.401659e+00 
1.416566e+00 
1.431847e+00 
1.447495e+00 
1.463503e+00 
1.479862e+00 
1.496564e+00 
1.513602e+00 
1.530969e+00 
1.548656e+00 
1.566657e+00 
1.584963e+00 
1.603569e+00 
1.622467e+00 
1.641650e+00 
1.661111e+00 
2.479065e+00 
2.452946e+00 
2.426933e+00 
2.401026e+00 
2.375230e+00 
2.349547e+00 
2.323981e+00 
2.298534e+00 
2.273210e+00 
2.248012e+00 
2.222943e+00 
2.198008e+00 
2.173210e+00 
2.148553e+00 
2.124041e+00 
2.099677e+00 
2.075467e+00 
2.051414e+00 
2.027523e+00 
2.003799e+00 
1.980245e+00 
1.956868e+00 
1.933672e+00 
1.910663e+00 
1.887845e+00 
1.865225e+00 
1.842807e+00 
1.820599e+00 
1.798604e+00 
1.776831e+00 
1.755285e+00 
1.733973e+00 
1.712900e+00 
1.692075e+00 
1.671504e+00 
1.651194e+00 
1.631153e+00 
1.611388e+00 
1.591906e+00 
1.572716e+00 
1.553826e+00 
1.535243e+00 
1.516976e+00 
1.499034e+00 
1.481424e+00 
1.464156e+00 
1.447238e+00 
1.430680e+00 
1.414491e+00 
1.398679e+00 
1.383253e+00 
1.368224e+00 
1.353601e+00 
1.339392e+00 
1.325608e+00 
1.312257e+00 
1.299349e+00 
1.286894e+00 
1.274901e+00 
1.263378e+00 
1.252335e+00 
1.241781e+00 
1.231725e+00 
1.222174e+00 
1.213138e+00 
1.204625e+00 
1.196641e+00 
1.189195e+00 
1.182292e+00 
1.175937e+00 
1.170131e+00 
1.164868e+00 
1.160120e+00 
1.155808e+00 
1.151768e+00 
1.147884e+00 
1.144367e+00 
1.141338e+00 
1.138847e+00 
1.136914e+00 
1.135546e+00 
1.134746e+00 
1.134514e+00 
1.134851e+00 
1.135754e+00 
1.137224e+00 
1.139257e+00 
1.141851e+00 
1.145003e+00 
1.148710e+00 
1.152968e+00 
1.157771e+00 
1.163116e+00 
1.168996e+00 
1.175407e+00 
1.182342e+00 
1.189794e+00 
1.197758e+00 
1.206227e+00 
1.215192e+00 
1.224648e+00 
1.234585e+00 
1.244997e+00 
1.255876e+00 
1.267213e+00 
1.279001e+00 
1.291230e+00 
1.303894e+00 
1.316983e+00 
1.330490e+00 
1.344405e+00 
1.358721e+00 
1.373429e+00 
1.388521e+00 
1.403989e+00 
1.419824e+00 
1.436018e+00 
1.452563e+00 
1.469452e+00 
1.486676e+00 
1.504228e+00 
1.522099e+00 
1.540283e+00 
1.558772e+00 
1.577559e+00 
1.596636e+00 
1.615996e+00 
1.635633e+00 
2.459967e+00 
2.433696e+00 
2.407528e+00 
2.381466e+00 
2.355513e+00 
2.329672e+00 
2.303946e+00 
2.278338e+00 
2.252852e+00 
2.227490e+00 
2.202257e+00 
2.177156e+00 
2.152191e+00 
2.127365e+00 
2.102682e+00 