# vtk DataFile Version 2.0 
Quadtree Mesh 
ASCII 
DATASET UNSTRUCTURED_GRID 
POINTS 16384 double 
-1.000000e+00 -1.000000e+00 0.000000e+00
-9.842520e-01 -1.000000e+00 0.000000e+00
-9.685039e-01 -1.000000e+00 0.000000e+00
-9.527559e-01 -1.000000e+00 0.000000e+00
-9.370079e-01 -1.000000e+00 0.000000e+00
-9.212598e-01 -1.000000e+00 0.000000e+00
-9.055118e-01 -1.000000e+00 0.000000e+00
-8.897638e-01 -1.000000e+00 0.000000e+00
-8.740157e-01 -1.000000e+00 0.000000e+00
-8.582677e-01 -1.000000e+00 0.000000e+00
-8.425197e-01 -1.000000e+00 0.000000e+00
-8.267717e-01 -1.000000e+00 0.000000e+00
-8.110236e-01 -1.000000e+00 0.000000e+00
-7.952756e-01 -1.000000e+00 0.000000e+00
-7.795276e-01 -1.000000e+00 0.000000e+00
-7.637795e-01 -1.000000e+00 0.000000e+00
-7.480315e-01 -1.000000e+00 0.000000e+00
-7.322835e-01 -1.000000e+00 0.000000e+00
-7.165354e-01 -1.000000e+00 0.000000e+00
-7.007874e-01 -1.000000e+00 0.000000e+00
-6.850394e-01 -1.000000e+00 0.000000e+00
-6.692913e-01 -1.000000e+00 0.000000e+00
-6.535433e-01 -1.000000e+00 0.000000e+00
-6.377953e-01 -1.000000e+00 0.000000e+00
-6.220472e-01 -1.000000e+00 0.000000e+00
-6.062992e-01 -1.000000e+00 0.000000e+00
-5.905512e-01 -1.000000e+00 0.000000e+00
-5.748031e-01 -1.000000e+00 0.000000e+00
-5.590551e-01 -1.000000e+00 0.000000e+00
-5.433071e-01 -1.000000e+00 0.000000e+00
-5.275591e-01 -1.000000e+00 0.000000e+00
-5.118110e-01 -1.000000e+00 0.000000e+00
-4.960630e-01 -1.000000e+00 0.000000e+00
-4.803150e-01 -1.000000e+00 0.000000e+00
-4.645669e-01 -1.000000e+00 0.000000e+00
-4.488189e-01 -1.000000e+00 0.000000e+00
-4.330709e-01 -1.000000e+00 0.000000e+00
-4.173228e-01 -1.000000e+00 0.000000e+00
-4.015748e-01 -1.000000e+00 0.000000e+00
-3.858268e-01 -1.000000e+00 0.000000e+00
-3.700787e-01 -1.000000e+00 0.000000e+00
-3.543307e-01 -1.000000e+00 0.000000e+00
-3.385827e-01 -1.000000e+00 0.000000e+00
-3.228346e-01 -1.000000e+00 0.000000e+00
-3.070866e-01 -1.000000e+00 0.000000e+00
-2.913386e-01 -1.000000e+00 0.000000e+00
-2.755906e-01 -1.000000e+00 0.000000e+00
-2.598425e-01 -1.000000e+00 0.000000e+00
-2.440945e-01 -1.000000e+00 0.000000e+00
-2.283465e-01 -1.000000e+00 0.000000e+00
-2.125984e-01 -1.000000e+00 0.000000e+00
-1.968504e-01 -1.000000e+00 0.000000e+00
-1.811024e-01 -1.000000e+00 0.000000e+00
-1.653543e-01 -1.000000e+00 0.000000e+00
-1.496063e-01 -1.000000e+00 0.000000e+00
-1.338583e-01 -1.000000e+00 0.000000e+00
-1.181102e-01 -1.000000e+00 0.000000e+00
-1.023622e-01 -1.000000e+00 0.000000e+00
-8.661417e-02 -1.000000e+00 0.000000e+00
-7.086614e-02 -1.000000e+00 0.000000e+00
-5.511811e-02 -1.000000e+00 0.000000e+00
-3.937008e-02 -1.000000e+00 0.000000e+00
-2.362205e-02 -1.000000e+00 0.000000e+00
-7.874016e-03 -1.000000e+00 0.000000e+00
7.874016e-03 -1.000000e+00 0.000000e+00
2.362205e-02 -1.000000e+00 0.000000e+00
3.937008e-02 -1.000000e+00 0.000000e+00
5.511811e-02 -1.000000e+00 0.000000e+00
7.086614e-02 -1.000000e+00 0.000000e+00
8.661417e-02 -1.000000e+00 0.000000e+00
1.023622e-01 -1.000000e+00 0.000000e+00
1.181102e-01 -1.000000e+00 0.000000e+00
1.338583e-01 -1.000000e+00 0.000000e+00
1.496063e-01 -1.000000e+00 0.000000e+00
1.653543e-01 -1.000000e+00 0.000000e+00
1.811024e-01 -1.000000e+00 0.000000e+00
1.968504e-01 -1.000000e+00 0.000000e+00
2.125984e-01 -1.000000e+00 0.000000e+00
2.283465e-01 -1.000000e+00 0.000000e+00
2.440945e-01 -1.000000e+00 0.000000e+00
2.598425e-01 -1.000000e+00 0.000000e+00
2.755906e-01 -1.000000e+00 0.000000e+00
2.913386e-01 -1.000000e+00 0.000000e+00
3.070866e-01 -1.000000e+00 0.000000e+00
3.228346e-01 -1.000000e+00 0.000000e+00
3.385827e-01 -1.000000e+00 0.000000e+00
3.543307e-01 -1.000000e+00 0.000000e+00
3.700787e-01 -1.000000e+00 0.000000e+00
3.858268e-01 -1.000000e+00 0.000000e+00
4.015748e-01 -1.000000e+00 0.000000e+00
4.173228e-01 -1.000000e+00 0.000000e+00
4.330709e-01 -1.000000e+00 0.000000e+00
4.488189e-01 -1.000000e+00 0.000000e+00
4.645669e-01 -1.000000e+00 0.000000e+00
4.803150e-01 -1.000000e+00 0.000000e+00
4.960630e-01 -1.000000e+00 0.000000e+00
5.118110e-01 -1.000000e+00 0.000000e+00
5.275591e-01 -1.000000e+00 0.000000e+00
5.433071e-01 -1.000000e+00 0.000000e+00
5.590551e-01 -1.000000e+00 0.000000e+00
5.748031e-01 -1.000000e+00 0.000000e+00
5.905512e-01 -1.000000e+00 0.000000e+00
6.062992e-01 -1.000000e+00 0.000000e+00
6.220472e-01 -1.000000e+00 0.000000e+00
6.377953e-01 -1.000000e+00 0.000000e+00
6.535433e-01 -1.000000e+00 0.000000e+00
6.692913e-01 -1.000000e+00 0.000000e+00
6.850394e-01 -1.000000e+00 0.000000e+00
7.007874e-01 -1.000000e+00 0.000000e+00
7.165354e-01 -1.000000e+00 0.000000e+00
7.322835e-01 -1.000000e+00 0.000000e+00
7.480315e-01 -1.000000e+00 0.000000e+00
7.637795e-01 -1.000000e+00 0.000000e+00
7.795276e-01 -1.000000e+00 0.000000e+00
7.952756e-01 -1.000000e+00 0.000000e+00
8.110236e-01 -1.000000e+00 0.000000e+00
8.267717e-01 -1.000000e+00 0.000000e+00
8.425197e-01 -1.000000e+00 0.000000e+00
8.582677e-01 -1.000000e+00 0.000000e+00
8.740157e-01 -1.000000e+00 0.000000e+00
8.897638e-01 -1.000000e+00 0.000000e+00
9.055118e-01 -1.000000e+00 0.000000e+00
9.212598e-01 -1.000000e+00 0.000000e+00
9.370079e-01 -1.000000e+00 0.000000e+00
9.527559e-01 -1.000000e+00 0.000000e+00
9.685039e-01 -1.000000e+00 0.000000e+00
9.842520e-01 -1.000000e+00 0.000000e+00
1.000000e+00 -1.000000e+00 0.000000e+00
-1.000000e+00 -9.842520e-01 0.000000e+00
-9.842520e-01 -9.842520e-01 0.000000e+00
-9.685039e-01 -9.842520e-01 0.000000e+00
-9.527559e-01 -9.842520e-01 0.000000e+00
-9.370079e-01 -9.842520e-01 0.000000e+00
-9.212598e-01 -9.842520e-01 0.000000e+00
-9.055118e-01 -9.842520e-01 0.000000e+00
-8.897638e-01 -9.842520e-01 0.000000e+00
-8.740157e-01 -9.842520e-01 0.000000e+00
-8.582677e-01 -9.842520e-01 0.000000e+00
-8.425197e-01 -9.842520e-01 0.000000e+00
-8.267717e-01 -9.842520e-01 0.000000e+00
-8.110236e-01 -9.842520e-01 0.000000e+00
-7.952756e-01 -9.842520e-01 0.000000e+00
-7.795276e-01 -9.842520e-01 0.000000e+00
-7.637795e-01 -9.842520e-01 0.000000e+00
-7.480315e-01 -9.842520e-01 0.000000e+00
-7.322835e-01 -9.842520e-01 0.000000e+00
-7.165354e-01 -9.842520e-01 0.000000e+00
-7.007874e-01 -9.842520e-01 0.000000e+00
-6.850394e-01 -9.842520e-01 0.000000e+00
-6.692913e-01 -9.842520e-01 0.000000e+00
-6.535433e-01 -9.842520e-01 0.000000e+00
-6.377953e-01 -9.842520e-01 0.000000e+00
-6.220472e-01 -9.842520e-01 0.000000e+00
-6.062992e-01 -9.842520e-01 0.000000e+00
-5.905512e-01 -9.842520e-01 0.000000e+00
-5.748031e-01 -9.842520e-01 0.000000e+00
-5.590551e-01 -9.842520e-01 0.000000e+00
-5.433071e-01 -9.842520e-01 0.000000e+00
-5.275591e-01 -9.842520e-01 0.000000e+00
-5.118110e-01 -9.842520e-01 0.000000e+00
-4.960630e-01 -9.842520e-01 0.000000e+00
-4.803150e-01 -9.842520e-01 0.000000e+00
-4.645669e-01 -9.842520e-01 0.000000e+00
-4.488189e-01 -9.842520e-01 0.000000e+00
-4.330709e-01 -9.842520e-01 0.000000e+00
-4.173228e-01 -9.842520e-01 0.000000e+00
-4.015748e-01 -9.842520e-01 0.000000e+00
-3.858268e-01 -9.842520e-01 0.000000e+00
-3.700787e-01 -9.842520e-01 0.000000e+00
-3.543307e-01 -9.842520e-01 0.000000e+00
-3.385827e-01 -9.842520e-01 0.000000e+00
-3.228346e-01 -9.842520e-01 0.000000e+00
-3.070866e-01 -9.842520e-01 0.000000e+00
-2.913386e-01 -9.842520e-01 0.000000e+00
-2.755906e-01 -9.842520e-01 0.000000e+00
-2.598425e-01 -9.842520e-01 0.000000e+00
-2.440945e-01 -9.842520e-01 0.000000e+00
-2.283465e-01 -9.842520e-01 0.000000e+00
-2.125984e-01 -9.842520e-01 0.000000e+00
-1.968504e-01 -9.842520e-01 0.000000e+00
-1.811024e-01 -9.842520e-01 0.000000e+00
-1.653543e-01 -9.842520e-01 0.000000e+00
-1.496063e-01 -9.842520e-01 0.000000e+00
-1.338583e-01 -9.842520e-01 0.000000e+00
-1.181102e-01 -9.842520e-01 0.000000e+00
-1.023622e-01 -9.842520e-01 0.000000e+00
-8.661417e-02 -9.842520e-01 0.000000e+00
-7.086614e-02 -9.842520e-01 0.000000e+00
-5.511811e-02 -9.842520e-01 0.000000e+00
-3.937008e-02 -9.842520e-01 0.000000e+00
-2.362205e-02 -9.842520e-01 0.000000e+00
-7.874016e-03 -9.842520e-01 0.000000e+00
7.874016e-03 -9.842520e-01 0.000000e+00
2.362205e-02 -9.842520e-01 0.000000e+00
3.937008e-02 -9.842520e-01 0.000000e+00
5.511811e-02 -9.842520e-01 0.000000e+00
7.086614e-02 -9.842520e-01 0.000000e+00
8.661417e-02 -9.842520e-01 0.000000e+00
1.023622e-01 -9.842520e-01 0.000000e+00
1.181102e-01 -9.842520e-01 0.000000e+00
1.338583e-01 -9.842520e-01 0.000000e+00
1.496063e-01 -9.842520e-01 0.000000e+00
1.653543e-01 -9.842520e-01 0.000000e+00
1.811024e-01 -9.842520e-01 0.000000e+00
1.968504e-01 -9.842520e-01 0.000000e+00
2.125984e-01 -9.842520e-01 0.000000e+00
2.283465e-01 -9.842520e-01 0.000000e+00
2.440945e-01 -9.842520e-01 0.000000e+00
2.598425e-01 -9.842520e-01 0.000000e+00
2.755906e-01 -9.842520e-01 0.000000e+00
2.913386e-01 -9.842520e-01 0.000000e+00
3.070866e-01 -9.842520e-01 0.000000e+00
3.228346e-01 -9.842520e-01 0.000000e+00
3.385827e-01 -9.842520e-01 0.000000e+00
3.543307e-01 -9.842520e-01 0.000000e+00
3.700787e-01 -9.842520e-01 0.000000e+00
3.858268e-01 -9.842520e-01 0.000000e+00
4.015748e-01 -9.842520e-01 0.000000e+00
4.173228e-01 -9.842520e-01 0.000000e+00
4.330709e-01 -9.842520e-01 0.000000e+00
4.488189e-01 -9.842520e-01 0.000000e+00
4.645669e-01 -9.842520e-01 0.000000e+00
4.803150e-01 -9.842520e-01 0.000000e+00
4.960630e-01 -9.842520e-01 0.000000e+00
5.118110e-01 -9.842520e-01 0.000000e+00
5.275591e-01 -9.842520e-01 0.000000e+00
5.433071e-01 -9.842520e-01 0.000000e+00
5.590551e-01 -9.842520e-01 0.000000e+00
5.748031e-01 -9.842520e-01 0.000000e+00
5.905512e-01 -9.842520e-01 0.000000e+00
6.062992e-01 -9.842520e-01 0.000000e+00
6.220472e-01 -9.842520e-01 0.000000e+00
6.377953e-01 -9.842520e-01 0.000000e+00
6.535433e-01 -9.842520e-01 0.000000e+00
6.692913e-01 -9.842520e-01 0.000000e+00
6.850394e-01 -9.842520e-01 0.000000e+00
7.007874e-01 -9.842520e-01 0.000000e+00
7.165354e-01 -9.842520e-01 0.000000e+00
7.322835e-01 -9.842520e-01 0.000000e+00
7.480315e-01 -9.842520e-01 0.000000e+00
7.637795e-01 -9.842520e-01 0.000000e+00
7.795276e-01 -9.842520e-01 0.000000e+00
7.952756e-01 -9.842520e-01 0.000000e+00
8.110236e-01 -9.842520e-01 0.000000e+00
[...]
POINT_DATA 16384 
SCALARS concentration double 1 
LOOKUP_TABLE default 
2.793742e+00 
2.769209e+00 
2.744800e+00 
2.720517e+00 
2.696365e+00 
2.672345e+00 
2.648460e+00 
2.624715e+00 
2.601112e+00 
2.577654e+00 
2.554346e+00 
2.531191e+00 
2.508191e+00 
2.485352e+00 
2.462677e+00 
2.440169e+00 
2.417833e+00 
2.395673e+00 
2.373693e+00 
2.351898e+00 
2.330291e+00 
2.308877e+00 
2.287662e+00 
2.266649e+00 
2.245843e+00 
2.225250e+00 
2.204874e+00 
2.184721e+00 
2.164795e+00 
2.145102e+00 
2.125648e+00 
2.106437e+00 
2.087477e+00 
2.068771e+00 
2.050327e+00 
2.032150e+00 
2.014246e+00 
1.996622e+00 
1.979282e+00 
1.962235e+00 
1.945485e+00 
1.929040e+00 
1.912905e+00 
1.897088e+00 
1.881596e+00 
1.866433e+00 
1.851608e+00 
1.837127e+00 
1.822996e+00 
1.809223e+00 
1.795814e+00 
1.782776e+00 
1.770115e+00 
1.757838e+00 
1.745951e+00 
1.734462e+00 
1.723376e+00 
1.712700e+00 
1.702440e+00 
1.692603e+00 
1.683193e+00 
1.674217e+00 
1.665681e+00 
1.657590e+00 
1.649949e+00 
1.642764e+00 
1.636038e+00 
1.629778e+00 
1.623986e+00 
1.618667e+00 
1.613825e+00 
1.609463e+00 
1.605550e+00 
1.602099e+00 
1.599133e+00 
1.596657e+00 
1.594672e+00 
1.593180e+00 
1.592182e+00 
1.591679e+00 
1.591671e+00 
1.592158e+00 
1.593139e+00 
1.594614e+00 
1.596583e+00 
1.599042e+00 
1.601991e+00 
1.605427e+00 
1.609348e+00 
1.613751e+00 
1.618633e+00 
1.623991e+00 
1.629820e+00 
1.636116e+00 
1.642876e+00 
1.650095e+00 
1.657767e+00 
1.665889e+00 
1.674454e+00 
1.683457e+00 
1.692893e+00 
1.702755e+00 
1.713039e+00 
1.723737e+00 
1.734844e+00 
1.746353e+00 
1.758257e+00 
1.770552e+00 
1.783229e+00 
1.796282e+00 
1.809705e+00 
1.823491e+00 
1.837633e+00 
1.852125e+00 
1.866960e+00 
1.882131e+00 
1.897632e+00 
1.913456e+00 
1.929597e+00 
1.946047e+00 
1.962802e+00 
1.979854e+00 
1.997196e+00 
2.014824e+00 
2.032730e+00 
2.050908e+00 
2.069354e+00 
2.088060e+00 
2.774161e+00 
2.749476e+00 
2.724914e+00 
2.700476e+00 
2.676166e+00 
2.651988e+00 
2.627943e+00 
2.604036e+00 
2.580270e+00 
2.556647e+00 
2.533173e+00 
2.509849e+00 
2.486680e+00 
2.463670e+00 
2.440822e+00 
2.418140e+00 
2.395629e+00 
2.373292e+00 
2.351134e+00 
2.329159e+00 
2.307371e+00 
2.285775e+00 
2.264376e+00 
2.243179e+00 
2.222188e+00 
2.201408e+00 
2.180844e+00 
2.160502e+00 
2.140387e+00 
2.120504e+00 
2.100859e+00 
2.081458e+00 
2.062305e+00 
2.043408e+00 
2.024771e+00 
2.006402e+00 
1.988306e+00 
1.970489e+00 
1.952958e+00 
1.935718e+00 
1.918778e+00 
1.902143e+00 
1.885819e+00 
1.869814e+00 
1.854134e+00 
1.838787e+00 
1.823778e+00 
1.809115e+00 
1.794805e+00 
1.780854e+00 
1.767270e+00 
1.754060e+00 
1.741229e+00 
1.728787e+00 
1.716738e+00 
1.705089e+00 
1.693849e+00 
1.683022e+00 
1.672616e+00 
1.662636e+00 
1.653090e+00 
1.643982e+00 
1.635320e+00 
1.627108e+00 
1.619352e+00 
1.612058e+00 
1.605230e+00 
1.598873e+00 
1.592992e+00 
1.587590e+00 
1.582673e+00 
1.578243e+00 
1.574275e+00 
1.570769e+00 
1.567757e+00 
1.565241e+00 
1.563225e+00 
1.561710e+00 
1.560696e+00 
1.560185e+00 
1.560176e+00 
1.560671e+00 
1.561668e+00 
1.563167e+00 
1.565167e+00 
1.567665e+00 
1.570661e+00 
1.574151e+00 
1.578134e+00 
1.582606e+00 
1.587564e+00 
1.593005e+00 
1.598923e+00 
1.605316e+00 
1.612179e+00 
1.619507e+00 
1.627294e+00 
1.635537e+00 
1.644228e+00 
1.653363e+00 
1.662936e+00 
1.672940e+00 
1.683370e+00 
1.694219e+00 
1.705480e+00 
1.717148e+00 
1.729215e+00 
1.741675e+00 
1.754521e+00 
1.767746e+00 
1.781344e+00 
1.795307e+00 
1.809628e+00 
1.824301e+00 
1.839320e+00 
1.854676e+00 
1.870363e+00 
1.886375e+00 
1.902704e+00 
1.919345e+00 
1.936290e+00 
1.953532e+00 
1.971067e+00 
1.988886e+00 
2.006984e+00 
2.025355e+00 
2.043992e+00 
2.062889e+00 
2.754773e+00 
2.729936e+00 
2.705219e+00 
2.680626e+00 
2.656158e+00 
2.631821e+00 
2.607615e+00 
2.583546e+00 
2.559615e+00 
2.535827e+00 
2.512185e+00 
2.488693e+00 
2.465353e+00 
2.442171e+00 
2.419149e+00 
2.396292e+00 
2.373604e+00 
2.351089e+00 
2.328751e+00 
2.306595e+00 
2.284624e+00 
2.262845e+00 
2.241261e+00 
2.219877e+00 
2.198698e+00 
2.177729e+00 
2.156976e+00 
2.136443e+00 
2.116136e+00 
2.096061e+00 
2.076222e+00 
2.056627e+00 
2.037280e+00 
2.018188e+00 
1.999356e+00 
1.980791e+00 
1.962500e+00 
1.944487e+00 
1.926761e+00 
1.909327e+00 
1.892192e+00 
1.875363e+00 
1.858847e+00 
1.842650e+00 
1.826780e+00 
1.811243e+00 
1.796046e+00 
1.781198e+00 
1.766704e+00 
1.752572e+00 
1.738809e+00 
1.725422e+00 
1.712419e+00 
1.699806e+00 
1.687590e+00 
1.675779e+00 
1.664379e+00 
1.653398e+00 
1.642841e+00 
1.632716e+00 
1.623029e+00 
1.613786e+00 
1.604993e+00 
1.596657e+00 
1.588783e+00 
1.581377e+00 
1.574443e+00 
1.567987e+00 
1.562014e+00 
1.556527e+00 
1.551531e+00 
1.547031e+00 
1.543007e+00 
1.539446e+00 
1.536385e+00 
1.533829e+00 
1.531780e+00 
1.530240e+00 
1.529210e+00 
1.528690e+00 
1.528682e+00 
1.529185e+00 
1.530198e+00 
1.531721e+00 
1.533753e+00 
1.536292e+00 
1.539336e+00 
1.542882e+00 
1.546929e+00 
1.551472e+00 
1.556508e+00 
1.562034e+00 
1.568046e+00 
1.574538e+00 
1.581507e+00 
1.588947e+00 
1.596853e+00 
1.605220e+00 
1.614041e+00 
1.623312e+00 
1.633025e+00 
1.643175e+00 
1.653755e+00 
1.664758e+00 
1.676179e+00 
1.688009e+00 
1.700243e+00 
1.712873e+00 
1.725892e+00 
1.739293e+00 
1.753069e+00 
1.767213e+00 
1.781718e+00 
1.796577e+00 
1.811782e+00 
1.827327e+00 
1.843204e+00 
1.859408e+00 
1.875929e+00 
1.892763e+00 
1.909902e+00 
1.927339e+00 
1.945068e+00 
1.963083e+00 
1.981376e+00 
1.999942e+00 
2.018773e+00 
2.037866e+00 
2.735582e+00 
2.710591e+00 
2.685720e+00 
2.660970e+00 
2.636345e+00 
2.611847e+00 
2.587481e+00 
2.563248e+00 
2.539153e+00 
2.515199e+00 
2.491388e+00 
2.467726e+00 
2.444215e+00 
2.420859e+00 
2.397663e+00 
2.374629e+00 
2.351763e+00 
2.329068e+00 
2.306549e+00 
2.284210e+00 
2.262055e+00 
2.240090e+00 
2.218319e+00 
2.196747e+00 
2.175378e+00 
2.154219e+00 
2.133274e+00 
2.112548e+00 
2.092047e+00 
2.071776e+00 
2.051742e+00 
2.031950e+00 
2.012406e+00 
1.993116e+00 
1.974086e+00 
1.955323e+00 
1.936833e+00 
1.918622e+00 
1.900697e+00 
1.883064e+00 
1.865732e+00 
1.848705e+00 
1.831992e+00 
1.815600e+00 
1.799535e+00 
1.783805e+00 
1.768417e+00 
1.753379e+00 
1.738697e+00 
1.724380e+00 
1.710433e+00 
1.696866e+00 
1.683685e+00 
1.670898e+00 
1.658511e+00 
1.646533e+00 
1.634970e+00 
1.623830e+00 
1.613118e+00 
1.602844e+00 
1.593012e+00 
1.583630e+00 
1.574704e+00 
1.566239e+00 
1.558244e+00 
1.550722e+00 
1.543679e+00 
1.537121e+00 
1.531052e+00 
1.525478e+00 
1.520402e+00 
1.515828e+00 
1.511747e+00 
1.508128e+00 
1.505017e+00 
1.502419e+00 
1.500336e+00 
1.498771e+00 
1.497724e+00 
1.497196e+00 
1.497188e+00 
1.497699e+00 
1.498729e+00 
1.500277e+00 
1.502342e+00 
1.504923e+00 
1.508017e+00 
1.511621e+00 
1.515733e+00 
1.520350e+00 
1.525467e+00 
1.531081e+00 
1.537188e+00 
1.543783e+00 
1.550861e+00 
1.558417e+00 
1.566445e+00 
1.574940e+00 
1.583895e+00 
1.593305e+00 
1.603163e+00 
1.613462e+00 
1.624197e+00 
1.635359e+00 
1.646942e+00 
1.658940e+00 
1.671344e+00 
1.684148e+00 
1.697344e+00 
1.710925e+00 
1.724884e+00 
1.739214e+00 
1.753906e+00 
1.768954e+00 
1.784351e+00 
1.800088e+00 
1.816160e+00 
1.832558e+00 
1.849276e+00 
1.866307e+00 
1.883643e+00 
1.901278e+00 
1.919206e+00 
1.937418e+00 
1.955910e+00 
1.974673e+00 
1.993703e+00 
2.012993e+00 
2.716589e+00 
2.691446e+00 
2.666420e+00 
2.641513e+00 
2.616730e+00 
2.592072e+00 
2.567543e+00 
2.543147e+00 
2.518886e+00 
2.494765e+00 
2.470785e+00 
2.446952e+00 
2.423269e+00 
2.399739e+00 
2.376366e+00 
2.353155e+00 
2.330110e+00 
2.307234e+00 
2.284532e+00 
2.262009e+00 
2.239669e+00 
2.217516e+00 
2.195557e+00 
2.173794e+00 
2.152234e+00 
2.130882e+00 
2.109742e+00 
2.088821e+00 
2.068124e+00 
2.047656e+00 
2.027423e+00 
2.007432e+00 
1.987688e+00 
1.968197e+00 
1.948966e+00 
1.930002e+00 
1.911309e+00 
1.892896e+00 
1.874769e+00 
1.856935e+00 
1.839401e+00 
1.822174e+00 
1.805260e+00 
1.788669e+00 
1.772405e+00 
1.756478e+00 
1.740895e+00 
1.725662e+00 
1.710788e+00 
1.696281e+00 
1.682147e+00 
1.668395e+00 
1.655032e+00 
1.642066e+00 
1.629505e+00 
1.617355e+00 
1.605624e+00 
1.594320e+00 
1.583451e+00 
1.573022e+00 
1.563041e+00 
1.553516e+00 
1.544452e+00 
1.535856e+00 
1.527735e+00 
1.520094e+00 
1.512939e+00 
1.506275e+00 
1.500108e+00 
1.494443e+00 
1.489284e+00 
1.484635e+00 
1.480494e+00 
1.476815e+00 
1.473653e+00 
1.471012e+00 
1.468895e+00 
1.467303e+00 
1.466239e+00 
1.465702e+00 
1.465693e+00 
1.466213e+00 
1.467260e+00 
1.468835e+00 
1.470935e+00 
1.473558e+00 
1.476703e+00 
1.480367e+00 
1.484547e+00 
1.489240e+00 
1.494441e+00 
1.500146e+00 
1.506351e+00 
1.513052e+00 
1.520243e+00 
1.527918e+00 
1.536071e+00 
1.544698e+00 
1.553791e+00 
1.563344e+00 
1.573351e+00 
1.583804e+00 
1.594697e+00 
1.606023e+00 
1.617773e+00 
1.629942e+00 
1.642521e+00 
1.655504e+00 
1.668881e+00 
1.682647e+00 
1.696793e+00 
1.711312e+00 
1.726196e+00 
1.741438e+00 
1.757030e+00 
1.772964e+00 
1.789234e+00 
1.805831e+00 
1.822749e+00 
1.839980e+00 
1.857518e+00 
1.875354e+00 
1.893483e+00 
1.911897e+00 
1.930590e+00 
1.949555e+00 
1.968785e+00 
1.988275e+00 
2.697800e+00 
2.672503e+00 
2.647322e+00 
2.622259e+00 
2.597316e+00 
2.572498e+00 
2.547807e+00 
2.523247e+00 
2.498820e+00 
2.474530e+00 
2.450381e+00 
2.426376e+00 
2.402520e+00 
2.378815e+00 
2.355265e+00 
2.331875e+00 
2.308649e+00 
2.285591e+00 
2.262705e+00 
2.239997e+00 
2.217469e+00 
2.195128e+00 
2.172977e+00 
2.151023e+00 
2.129270e+00 
2.107722e+00 
2.086387e+00 
2.065268e+00 
2.044372e+00 
2.023704e+00 
2.003271e+00 
1.983077e+00 
1.963131e+00 
1.943436e+00 
1.924001e+00 
1.904832e+00 
1.885934e+00 
1.867316e+00 
1.848984e+00 
1.830944e+00 
1.813205e+00 
1.795773e+00 
1.778655e+00 
1.761860e+00 
1.745394e+00 
1.729266e+00 
1.713483e+00 
1.698052e+00 
1.682982e+00 
1.668280e+00 
1.653954e+00 
1.640013e+00 
1.626464e+00 
1.613314e+00 
1.600573e+00 
1.588247e+00 
1.576344e+00 
1.564873e+00 
1.553840e+00 
1.543253e+00 
1.533119e+00 
1.523446e+00 
1.514240e+00 
1.505509e+00 
1.497258e+00 
1.489494e+00 
1.482223e+00 
1.475451e+00 
1.469183e+00 
1.463424e+00 
1.458179e+00 
1.453452e+00 
1.449248e+00 
1.445509e+00 
1.442293e+00 
1.439608e+00 
1.437455e+00 
1.435836e+00 
1.434753e+00 
1.434208e+00 
1.434199e+00 
1.434728e+00 
1.435793e+00 
1.437394e+00 
1.439530e+00 
1.442198e+00 
1.445396e+00 
1.449122e+00 
1.453372e+00 
1.458142e+00 
1.463430e+00 
1.469229e+00 
1.475536e+00 
1.482346e+00 
1.489653e+00 
1.497451e+00 
1.505734e+00 
1.514496e+00 
1.523731e+00 
1.533432e+00 
1.543592e+00 
1.554203e+00 
1.565259e+00 
1.576752e+00 
1.588675e+00 
1.601019e+00 
1.613778e+00 
1.626944e+00 
1.640507e+00 
1.654462e+00 
1.668800e+00 
1.683513e+00 
1.698593e+00 
1.714032e+00 
1.729823e+00 
1.745959e+00 
1.762430e+00 
1.779231e+00 
1.796352e+00 
1.813788e+00 
1.831530e+00 
1.849571e+00 
1.867905e+00 
1.886524e+00 
1.905422e+00 
1.924591e+00 
1.944025e+00 
1.963718e+00 
2.679218e+00 
2.653768e+00 
2.628431e+00 
2.603210e+00 
2.578109e+00 
2.553130e+00 
2.528276e+00 
2.503551e+00 
2.478957e+00 
2.454499e+00 
2.430180e+00 
2.406003e+00 
2.381972e+00 
2.358091e+00 
2.334363e+00 
2.310794e+00 
2.287386e+00 
2.264144e+00 
2.241073e+00 
2.218177e+00 
2.195461e+00 
2.172929e+00 
2.150587e+00 
2.128439e+00 
2.106490e+00 
2.084746e+00 
2.063212e+00 
2.041893e+00 
2.020796e+00 
1.999926e+00 
1.979289e+00 
1.958891e+00 
1.938739e+00 
1.918838e+00 
1.899196e+00 
1.879819e+00 
1.860713e+00 
1.841886e+00 
1.823345e+00 
1.805096e+00 
1.787148e+00 
1.769507e+00 
1.752182e+00 
1.735179e+00 
1.718507e+00 
1.702173e+00 
1.686185e+00 
1.670552e+00 
1.655281e+00 
1.640381e+00 
1.625859e+00 
1.611723e+00 
1.597983e+00 
1.584645e+00 
1.571719e+00 
1.559213e+00 
1.547133e+00 
1.535489e+00 
1.524288e+00 
1.513539e+00 
1.503247e+00 
1.493422e+00 
1.484070e+00 
1.475199e+00 
1.466815e+00 
1.458924e+00 
1.451534e+00 
1.444649e+00 
1.438277e+00 
1.432421e+00 
1.427087e+00 
1.422280e+00 
1.418004e+00 
1.414209e+00 
1.410939e+00 
1.408207e+00 
1.406017e+00 
1.404370e+00 
1.403269e+00 
1.402714e+00 
1.402705e+00 
1.403243e+00 
1.404327e+00 
1.405956e+00 
1.408128e+00 
1.410842e+00 
1.414096e+00 
1.417885e+00 
1.422207e+00 
1.427059e+00 
1.432435e+00 
1.438332e+00 
1.444744e+00 
1.451666e+00 
1.459093e+00 
1.467018e+00 
1.475434e+00 
1.484337e+00 
1.493718e+00 
1.503571e+00 
1.513888e+00 
1.524662e+00 
1.535886e+00 
1.547551e+00 
1.559650e+00 
1.572175e+00 
1.585118e+00 
1.598471e+00 
1.612226e+00 
1.626374e+00 
1.640908e+00 
1.655819e+00 
1.671100e+00 
1.686741e+00 
1.702736e+00 
1.719076e+00 
1.735754e+00 
1.752762e+00 
1.770091e+00 
1.787735e+00 
1.805685e+00 
1.823935e+00 
1.842477e+00 
1.861305e+00 
1.880410e+00 
1.899787e+00 
1.919428e+00 
1.939327e+00 
2.660847e+00 
2.635243e+00 
2.609751e+00 
2.584373e+00 
2.559112e+00 
2.533971e+00 
2.508954e+00 
2.484064e+00 
2.459303e+00 
2.434676e+00 
2.410186e+00 
2.385835e+00 
2.361629e+00 
2.337571e+00 
2.313665e+00 
2.289915e+00 
2.266324e+00 
2.242898e+00 
2.219641e+00 
2.196556e+00 
2.173650e+00 
2.150926e+00 
2.128390e+00 
2.106046e+00 
2.083900e+00 
2.061957e+00 
2.040223e+00 
2.018702e+00 
1.997402e+00 
1.976327e+00 
1.955484e+00 
1.934879e+00 
1.914518e+00 
1.894408e+00 
1.874556e+00 
1.854967e+00 
1.835650e+00 
1.816611e+00 
1.797857e+00 
1.779396e+00 
1.761235e+00 
1.743382e+00 
1.725845e+00 
1.708630e+00 
1.691747e+00 
1.675204e+00 
1.659008e+00 
1.643167e+00 
1.627691e+00 
1.612587e+00 
1.597864e+00 
1.583530e+00 
1.569593e+00 
1.556063e+00 
1.542948e+00 
1.530255e+00 
1.517994e+00 
1.506173e+00 
1.494800e+00 
1.483882e+00 
1.473429e+00 
1.463447e+00 
1.453945e+00 
1.444929e+00 
1.436407e+00 
1.428386e+00 
1.420872e+00 
1.413871e+00 
1.407391e+00 
1.401435e+00 
1.396010e+00 
1.391120e+00 
1.386769e+00 
1.382916e+00 
1.379589e+00 
1.376809e+00 
1.374581e+00 
1.372905e+00 
1.371784e+00 
1.371219e+00 
1.371211e+00 
1.371758e+00 
1.372861e+00 
1.374519e+00 
1.376730e+00 
1.379492e+00 
1.382802e+00 
1.386657e+00 
1.391055e+00 
1.395990e+00 
1.401458e+00 
1.407455e+00 
1.413976e+00 
1.421014e+00 
1.428565e+00 
1.436620e+00 
1.445175e+00 
1.454222e+00 
1.463753e+00 
1.473763e+00 
1.484242e+00 
1.495184e+00 
1.506580e+00 
1.518422e+00 
1.530702e+00 
1.543413e+00 
1.556545e+00 
1.570090e+00 
1.584040e+00 
1.598387e+00 
1.613122e+00 
1.628236e+00 
1.643721e+00 
1.659570e+00 
1.675773e+00 
1.692322e+00 
1.709210e+00 
1.726429e+00 
1.743970e+00 
1.761825e+00 
1.779988e+00 
1.798450e+00 
1.817204e+00 
1.836243e+00 
1.855560e+00 
1.875147e+00 
1.894998e+00 
1.915106e+00 
2.642690e+00 
2.616932e+00 
2.591284e+00 
2.565749e+00 
2.540329e+00 
2.515027e+00 
2.489846e+00 
2.464790e+00 
2.439862e+00 
2.415065e+00 
2.390403e+00 
2.365879e+00 
2.341498e+00 
2.317262e+00 
2.293176e+00 
2.269244e+00 
2.245469e+00 
2.221858e+00 
2.198412e+00 
2.175138e+00 
2.152040e+00 
2.129123e+00 
2.106391e+00 
2.083850e+00 
2.061505e+00 
2.039361e+00 
2.017425e+00 
1.995700e+00 
1.974194e+00 
1.952912e+00 
1.931860e+00 
1.911046e+00 
1.890474e+00 
1.870152e+00 
1.850086e+00 
1.830283e+00 
1.810751e+00 
1.791497e+00 
1.772527e+00 
1.753850e+00 
1.735472e+00 
1.717403e+00 
1.699649e+00 
1.682219e+00 
1.665121e+00 
1.648363e+00 
1.631954e+00 
1.615902e+00 
1.600215e+00 
1.584903e+00 
1.569974e+00 
1.555436e+00 
1.541299e+00 
1.527571e+00 
1.514261e+00 
1.501378e+00 
1.488931e+00 
1.476927e+00 
1.465376e+00 
1.454286e+00 
1.443666e+00 
1.433523e+00 
1.423865e+00 
1.414700e+00 
1.406036e+00 
1.397880e+00 
1.390239e+00 
1.383119e+00 
1.376526e+00 
1.370467e+00 
1.364947e+00 
1.359971e+00 
1.355543e+00 
1.351630e+00 
1.348244e+00 
1.345415e+00 
1.343147e+00 
1.341441e+00 
1.340301e+00 
1.339726e+00 
1.339717e+00 
1.340274e+00 
1.341397e+00 
1.343085e+00 
1.345335e+00 
1.348146e+00 
1.351515e+00 
1.355439e+00 
1.359914e+00 
1.364935e+00 
1.370499e+00 
1.376600e+00 
1.383233e+00 
1.390392e+00 
1.398069e+00 
1.406260e+00 
1.414957e+00 
1.424153e+00 
1.433840e+00 
1.444010e+00 
1.454657e+00 
1.465771e+00 
1.477344e+00 
1.489368e+00 
1.501835e+00 
1.514736e+00 
1.528062e+00 
1.541805e+00 
1.555956e+00 
1.570505e+00 
1.585445e+00 
1.600767e+00 
1.616463e+00 
1.632522e+00 
1.648938e+00 
1.665701e+00 
1.682804e+00 
1.700237e+00 
1.717994e+00 
1.736065e+00 
1.754444e+00 
1.773122e+00 
1.792092e+00 
1.811346e+00 
1.830877e+00 
1.850678e+00 
1.870741e+00 
1.891061e+00 
2.624752e+00 
2.598840e+00 
2.573037e+00 
2.547343e+00 
2.521763e+00 
2.496300e+00 
2.470955e+00 
2.445734e+00 
2.420637e+00 
2.395671e+00 
2.370836e+00 
2.346139e+00 
2.321581e+00 
2.297166e+00 
2.272900e+00 
2.248785e+00 
2.224826e+00 
2.201027e+00 
2.177393e+00 
2.153928e+00 
2.130637e+00 
2.107525e+00 
2.084596e+00 
2.061857e+00 
2.039311e+00 
2.016964e+00 
1.994823e+00 
1.972892e+00 
1.951178e+00 
1.929687e+00 
1.908424e+00 
1.887397e+00 
1.866611e+00 
1.846074e+00 
1.825792e+00 
1.805772e+00 
1.786022e+00 
1.766549e+00 
1.747359e+00 
1.728462e+00 
1.709864e+00 
1.691575e+00 
1.673601e+00 
1.655951e+00 
1.638633e+00 
1.621657e+00 
1.605030e+00 
1.588761e+00 
1.572860e+00 
1.557334e+00 
1.542194e+00 
1.527448e+00 
1.513105e+00 
1.499174e+00 
1.485665e+00 
1.472586e+00 
1.459946e+00 
1.447755e+00 
1.436021e+00 
1.424754e+00 
1.413961e+00 
1.403651e+00 
1.393834e+00 
1.384515e+00 
1.375705e+00 
1.367409e+00 
1.359636e+00 
1.352392e+00 
1.345684e+00 
1.339518e+00 
1.333900e+00 
1.328835e+00 
1.324327e+00 
1.320352e+00 
1.316905e+00 
1.314025e+00 
1.311715e+00 
1.309979e+00 
1.308817e+00 
1.308232e+00 
1.308223e+00 
1.308790e+00 
1.309934e+00 
1.311652e+00 
1.313944e+00 
1.316806e+00 
1.320236e+00 
1.324231e+00 
1.328786e+00 
1.333897e+00 
1.339560e+00 
1.345768e+00 
1.352517e+00 
1.359799e+00 
1.367609e+00 
1.375940e+00 
1.384783e+00 
1.394132e+00 
1.403980e+00 
1.414316e+00 
1.425135e+00 
1.436426e+00 
1.448182e+00 
1.460394e+00 
1.473052e+00 
1.486149e+00 
1.499674e+00 
1.513619e+00 
1.527975e+00 
1.542733e+00 
1.557884e+00 
1.573419e+00 
1.589328e+00 
1.605604e+00 
1.622237e+00 
1.639218e+00 
1.656539e+00 
1.674193e+00 
1.692169e+00 
1.710460e+00 
1.729059e+00 
1.747956e+00 
1.767145e+00 
1.786617e+00 
1.806366e+00 
1.826384e+00 
1.846663e+00 
1.867198e+00 
2.607035e+00 
2.580971e+00 
2.555011e+00 
2.529160e+00 
2.503421e+00 
2.477795e+00 
2.452287e+00 
2.426899e+00 
2.401635e+00 
2.376497e+00 
2.351491e+00 
2.326618e+00 
2.301883e+00 
2.277290e+00 
2.252842e+00 
2.228544e+00 
2.204399e+00 
2.180413e+00 
2.156589e+00 
2.132932e+00 
2.109447e+00 
2.086138e+00 
2.063011e+00 
2.040071e+00 
2.017322e+00 
1.994771e+00 
1.972424e+00 
1.950285e+00 
1.928361e+00 
1.906657e+00 
1.885181e+00 
1.863939e+00 
1.842937e+00 
1.822181e+00 
1.801680e+00 
1.781440e+00 
1.761468e+00 
1.741772e+00 
1.722360e+00 
1.703239e+00 
1.684417e+00 
1.665903e+00 
1.647705e+00 
1.629830e+00 
1.612289e+00 
1.595089e+00 
1.578240e+00 
1.561750e+00 
1.545629e+00 
1.529885e+00 
1.514529e+00 
1.499569e+00 
1.485015e+00 
1.470876e+00 
1.457161e+00 
1.443881e+00 
1.431044e+00 
1.418660e+00 
1.406738e+00 
1.395288e+00 
1.384317e+00 
1.373836e+00 
1.363853e+00 
1.354376e+00 
1.345414e+00 
1.336975e+00 
1.329065e+00 
1.321693e+00 
1.314866e+00 
1.308589e+00 
1.302869e+00 
1.297712e+00 
1.293122e+00 
1.289081e+00 
1.285572e+00 
1.282638e+00 
1.280286e+00 
1.278517e+00 
1.277334e+00 
1.276738e+00 
1.276729e+00 
1.277307e+00 
1.278472e+00 
1.280223e+00 
1.282557e+00 
1.285472e+00 
1.288965e+00 
1.293033e+00 
1.297671e+00 
1.302876e+00 
1.308640e+00 
1.314960e+00 
1.321829e+00 
1.329239e+00 
1.337186e+00 
1.345660e+00 
1.354656e+00 
1.364163e+00 
1.374176e+00 
1.384684e+00 
1.395680e+00 
1.407154e+00 
1.419098e+00 
1.431502e+00 
1.444357e+00 
1.457655e+00 
1.471385e+00 
1.485538e+00 
1.500105e+00 
1.515076e+00 
1.530442e+00 
1.546194e+00 
1.562323e+00 
1.578820e+00 
1.595674e+00 
1.612878e+00 
1.630423e+00 
1.648300e+00 
1.666500e+00 
1.685016e+00 
1.703838e+00 
1.722958e+00 
1.742370e+00 
1.762064e+00 
1.782034e+00 
1.802271e+00 
1.822770e+00 
1.843522e+00 
2.589545e+00 
2.563327e+00 
2.537213e+00 
2.511204e+00 
2.485305e+00 
2.459517e+00 
2.433845e+00 
2.408291e+00 
2.382858e+00 
2.357550e+00 
2.332370e+00 
2.307323e+00 
2.282410e+00 
2.257637e+00 
2.233008e+00 