# vtk DataFile Version 2.0 
Quadtree Mesh 
ASCII 
DATASET UNSTRUCTURED_GRID 
POINTS 16384 double 
-1.000000e+00 -1.000000e+00 0.000000e+00
-9.842520e-01 -1.000000e+00 0.000000e+00
-9.685039e-01 -1.000000e+00 0.000000e+00
-9.527559e-01 -1.000000e+00 0.000000e+00
-9.370079e-01 -1.000000e+00 0.000000e+00
-9.212598e-01 -1.000000e+00 0.000000e+00
-9.055118e-01 -1.000000e+00 0.000000e+00
-8.897638e-01 -1.000000e+00 0.000000e+00
-8.740157e-01 -1.000000e+00 0.000000e+00
-8.582677e-01 -1.000000e+00 0.000000e+00
-8.425197e-01 -1.000000e+00 0.000000e+00
-8.267717e-01 -1.000000e+00 0.000000e+00
-8.110236e-01 -1.000000e+00 0.000000e+00
-7.952756e-01 -1.000000e+00 0.000000e+00
-7.795276e-01 -1.000000e+00 0.000000e+00
-7.637795e-01 -1.000000e+00 0.000000e+00
-7.480315e-01 -1.000000e+00 0.000000e+00
-7.322835e-01 -1.000000e+00 0.000000e+00
-7.165354e-01 -1.000000e+00 0.000000e+00
-7.007874e-01 -1.000000e+00 0.000000e+00
-6.850394e-01 -1.000000e+00 0.000000e+00
-6.692913e-01 -1.000000e+00 0.000000e+00
-6.535433e-01 -1.000000e+00 0.000000e+00
-6.377953e-01 -1.000000e+00 0.000000e+00
-6.220472e-01 -1.000000e+00 0.000000e+00
-6.062992e-01 -1.000000e+00 0.000000e+00
-5.905512e-01 -1.000000e+00 0.000000e+00
-5.748031e-01 -1.000000e+00 0.000000e+00
-5.590551e-01 -1.000000e+00 0.000000e+00
-5.433071e-01 -1.000000e+00 0.000000e+00
-5.275591e-01 -1.000000e+00 0.000000e+00
-5.118110e-01 -1.000000e+00 0.000000e+00
-4.960630e-01 -1.000000e+00 0.000000e+00
-4.803150e-01 -1.000000e+00 0.000000e+00
-4.645669e-01 -1.000000e+00 0.000000e+00
-4.488189e-01 -1.000000e+00 0.000000e+00
-4.330709e-01 -1.000000e+00 0.000000e+00
-4.173228e-01 -1.000000e+00 0.000000e+00
-4.015748e-01 -1.000000e+00 0.000000e+00
-3.858268e-01 -1.000000e+00 0.000000e+00
-3.700787e-01 -1.000000e+00 0.000000e+00
-3.543307e-01 -1.000000e+00 0.000000e+00
-3.385827e-01 -1.000000e+00 0.000000e+00
-3.228346e-01 -1.000000e+00 0.000000e+00
-3.070866e-01 -1.000000e+00 0.000000e+00
-2.913386e-01 -1.000000e+00 0.000000e+00
-2.755906e-01 -1.000000e+00 0.000000e+00
-2.598425e-01 -1.000000e+00 0.000000e+00
-2.440945e-01 -1.000000e+00 0.000000e+00
-2.283465e-01 -1.000000e+00 0.000000e+00
-2.125984e-01 -1.000000e+00 0.000000e+00
-1.968504e-01 -1.000000e+00 0.000000e+00
-1.811024e-01 -1.000000e+00 0.000000e+00
-1.653543e-01 -1.000000e+00 0.000000e+00
-1.496063e-01 -1.000000e+00 0.000000e+00
-1.338583e-01 -1.000000e+00 0.000000e+00
-1.181102e-01 -1.000000e+00 0.000000e+00
-1.023622e-01 -1.000000e+00 0.000000e+00
-8.661417e-02 -1.000000e+00 0.000000e+00
-7.086614e-02 -1.000000e+00 0.000000e+00
-5.511811e-02 -1.000000e+00 0.000000e+00
-3.937008e-02 -1.000000e+00 0.000000e+00
-2.362205e-02 -1.000000e+00 0.000000e+00
-7.874016e-03 -1.000000e+00 0.000000e+00
7.874016e-03 -1.000000e+00 0.000000e+00
2.362205e-02 -1.000000e+00 0.000000e+00
3.937008e-02 -1.000000e+00 0.000000e+00
5.511811e-02 -1.000000e+00 0.000000e+00
7.086614e-02 -1.000000e+00 0.000000e+00
8.661417e-02 -1.000000e+00 0.000000e+00
1.023622e-01 -1.000000e+00 0.000000e+00
1.181102e-01 -1.000000e+00 0.000000e+00
1.338583e-01 -1.000000e+00 0.000000e+00
1.496063e-01 -1.000000e+00 0.000000e+00
1.653543e-01 -1.000000e+00 0.000000e+00
1.811024e-01 -1.000000e+00 0.000000e+00
1.968504e-01 -1.000000e+00 0.000000e+00
2.125984e-01 -1.000000e+00 0.000000e+00
2.283465e-01 -1.000000e+00 0.000000e+00
2.440945e-01 -1.000000e+00 0.000000e+00
2.598425e-01 -1.000000e+00 0.000000e+00
2.755906e-01 -1.000000e+00 0.000000e+00
2.913386e-01 -1.000000e+00 0.000000e+00
3.070866e-01 -1.000000e+00 0.000000e+00
3.228346e-01 -1.000000e+00 0.000000e+00
3.385827e-01 -1.000000e+00 0.000000e+00
3.543307e-01 -1.000000e+00 0.000000e+00
3.700787e-01 -1.000000e+00 0.000000e+00
3.858268e-01 -1.000000e+00 0.000000e+00
4.015748e-01 -1.000000e+00 0.000000e+00
4.173228e-01 -1.000000e+00 0.000000e+00
4.330709e-01 -1.000000e+00 0.000000e+00
4.488189e-01 -1.000000e+00 0.000000e+00
4.645669e-01 -1.000000e+00 0.000000e+00
4.803150e-01 -1.000000e+00 0.000000e+00
4.960630e-01 -1.000000e+00 0.000000e+00
5.118110e-01 -1.000000e+00 0.000000e+00
5.275591e-01 -1.000000e+00 0.000000e+00
5.433071e-01 -1.000000e+00 0.000000e+00
5.590551e-01 -1.000000e+00 0.000000e+00
5.748031e-01 -1.000000e+00 0.000000e+00
5.905512e-01 -1.000000e+00 0.000000e+00
6.062992e-01 -1.000000e+00 0.000000e+00
6.220472e-01 -1.000000e+00 0.000000e+00
6.377953e-01 -1.000000e+00 0.000000e+00
6.535433e-01 -1.000000e+00 0.000000e+00
6.692913e-01 -1.000000e+00 0.000000e+00
6.850394e-01 -1.000000e+00 0.000000e+00
7.007874e-01 -1.000000e+00 0.000000e+00
7.165354e-01 -1.000000e+00 0.000000e+00
7.322835e-01 -1.000000e+00 0.000000e+00
7.480315e-01 -1.000000e+00 0.000000e+00
7.637795e-01 -1.000000e+00 0.000000e+00
7.795276e-01 -1.000000e+00 0.000000e+00
7.952756e-01 -1.000000e+00 0.000000e+00
8.110236e-01 -1.000000e+00 0.000000e+00
8.267717e-01 -1.000000e+00 0.000000e+00
8.425197e-01 -1.000000e+00 0.000000e+00
8.582677e-01 -1.000000e+00 0.000000e+00
8.740157e-01 -1.000000e+00 0.000000e+00
8.897638e-01 -1.000000e+00 0.000000e+00
9.055118e-01 -1.000000e+00 0.000000e+00
9.212598e-01 -1.000000e+00 0.000000e+00
9.370079e-01 -1.000000e+00 0.000000e+00
9.527559e-01 -1.000000e+00 0.000000e+00
9.685039e-01 -1.000000e+00 0.000000e+00
9.842520e-01 -1.000000e+00 0.000000e+00
1.000000e+00 -1.000000e+00 0.000000e+00
-1.000000e+00 -9.842520e-01 0.000000e+00
-9.842520e-01 -9.842520e-01 0.000000e+00
-9.685039e-01 -9.842520e-01 0.000000e+00
-9.527559e-01 -9.842520e-01 0.000000e+00
-9.370079e-01 -9.842520e-01 0.000000e+00
-9.212598e-01 -9.842520e-01 0.000000e+00
-9.055118e-01 -9.842520e-01 0.000000e+00
-8.897638e-01 -9.842520e-01 0.000000e+00
-8.740157e-01 -9.842520e-01 0.000000e+00
-8.582677e-01 -9.842520e-01 0.000000e+00
-8.425197e-01 -9.842520e-01 0.000000e+00
-8.267717e-01 -9.842520e-01 0.000000e+00
-8.110236e-01 -9.842520e-01 0.000000e+00
-7.952756e-01 -9.842520e-01 0.000000e+00
-7.795276e-01 -9.842520e-01 0.000000e+00
-7.637795e-01 -9.842520e-01 0.000000e+00
-7.480315e-01 -9.842520e-01 0.000000e+00
-7.322835e-01 -9.842520e-01 0.000000e+00
-7.165354e-01 -9.842520e-01 0.000000e+00
-7.007874e-01 -9.842520e-01 0.000000e+00
-6.850394e-01 -9.842520e-01 0.000000e+00
-6.692913e-01 -9.842520e-01 0.000000e+00
-6.535433e-01 -9.842520e-01 0.000000e+00
-6.377953e-01 -9.842520e-01 0.000000e+00
-6.220472e-01 -9.842520e-01 0.000000e+00
-6.062992e-01 -9.842520e-01 0.000000e+00
-5.905512e-01 -9.842520e-01 0.000000e+00
-5.748031e-01 -9.842520e-01 0.000000e+00
-5.590551e-01 -9.842520e-01 0.000000e+00
-5.433071e-01 -9.842520e-01 0.000000e+00
-5.275591e-01 -9.842520e-01 0.000000e+00
-5.118110e-01 -9.842520e-01 0.000000e+00
-4.960630e-01 -9.842520e-01 0.000000e+00
-4.803150e-01 -9.842520e-01 0.000000e+00
-4.645669e-01 -9.842520e-01 0.000000e+00
-4.488189e-01 -9.842520e-01 0.000000e+00
-4.330709e-01 -9.842520e-01 0.000000e+00
-4.173228e-01 -9.842520e-01 0.000000e+00
-4.015748e-01 -9.842520e-01 0.000000e+00
-3.858268e-01 -9.842520e-01 0.000000e+00
-3.700787e-01 -9.842520e-01 0.000000e+00
-3.543307e-01 -9.842520e-01 0.000000e+00
-3.385827e-01 -9.842520e-01 0.000000e+00
-3.228346e-01 -9.842520e-01 0.000000e+00
-3.070866e-01 -9.842520e-01 0.000000e+00
-2.913386e-01 -9.842520e-01 0.000000e+00
-2.755906e-01 -9.842520e-01 0.000000e+00
-2.598425e-01 -9.842520e-01 0.000000e+00
-2.440945e-01 -9.842520e-01 0.000000e+00
-2.283465e-01 -9.842520e-01 0.000000e+00
-2.125984e-01 -9.842520e-01 0.000000e+00
-1.968504e-01 -9.842520e-01 0.000000e+00
-1.811024e-01 -9.842520e-01 0.000000e+00
-1.653543e-01 -9.842520e-01 0.000000e+00
-1.496063e-01 -9.842520e-01 0.000000e+00
-1.338583e-01 -9.842520e-01 0.000000e+00
-1.181102e-01 -9.842520e-01 0.000000e+00
-1.023622e-01 -9.842520e-01 0.000000e+00
-8.661417e-02 -9.842520e-01 0.000000e+00
-7.086614e-02 -9.842520e-01 0.000000e+00
-5.511811e-02 -9.842520e-01 0.000000e+00
-3.937008e-02 -9.842520e-01 0.000000e+00
-2.362205e-02 -9.842520e-01 0.000000e+00
-7.874016e-03 -9.842520e-01 0.000000e+00
7.874016e-03 -9.842520e-01 0.000000e+00
2.362205e-02 -9.842520e-01 0.000000e+00
3.937008e-02 -9.842520e-01 0.000000e+00
5.511811e-02 -9.842520e-01 0.000000e+00
7.086614e-02 -9.842520e-01 0.000000e+00
8.661417e-02 -9.842520e-01 0.000000e+00
1.023622e-01 -9.842520e-01 0.000000e+00
1.181102e-01 -9.842520e-01 0.000000e+00
1.338583e-01 -9.842520e-01 0.000000e+00
1.496063e-01 -9.842520e-01 0.000000e+00
1.653543e-01 -9.842520e-01 0.000000e+00
1.811024e-01 -9.842520e-01 0.000000e+00
1.968504e-01 -9.842520e-01 0.000000e+00
2.125984e-01 -9.842520e-01 0.000000e+00
2.283465e-01 -9.842520e-01 0.000000e+00
2.440945e-01 -9.842520e-01 0.000000e+00
2.598425e-01 -9.842520e-01 0.000000e+00
2.755906e-01 -9.842520e-01 0.000000e+00
2.913386e-01 -9.842520e-01 0.000000e+00
3.070866e-01 -9.842520e-01 0.000000e+00
3.228346e-01 -9.842520e-01 0.000000e+00
3.385827e-01 -9.842520e-01 0.000000e+00
3.543307e-01 -9.842520e-01 0.000000e+00
3.700787e-01 -9.842520e-01 0.000000e+00
3.858268e-01 -9.842520e-01 0.000000e+00
4.015748e-01 -9.842520e-01 0.000000e+00
4.173228e-01 -9.842520e-01 0.000000e+00
4.330709e-01 -9.842520e-01 0.000000e+00
4.488189e-01 -9.842520e-01 0.000000e+00
4.645669e-01 -9.842520e-01 0.000000e+00
4.803150e-01 -9.842520e-01 0.000000e+00
4.960630e-01 -9.842520e-01 0.000000e+00
5.118110e-01 -9.842520e-01 0.000000e+00
5.275591e-01 -9.842520e-01 0.000000e+00
5.433071e-01 -9.842520e-01 0.000000e+00
5.590551e-01 -9.842520e-01 0.000000e+00
5.748031e-01 -9.842520e-01 0.000000e+00
5.905512e-01 -9.842520e-01 0.000000e+00
6.062992e-01 -9.842520e-01 0.000000e+00
6.220472e-01 -9.842520e-01 0.000000e+00
6.377953e-01 -9.842520e-01 0.000000e+00
6.535433e-01 -9.842520e-01 0.000000e+00
6.692913e-01 -9.842520e-01 0.000000e+00
6.850394e-01 -9.842520e-01 0.000000e+00
7.007874e-01 -9.842520e-01 0.000000e+00
7.165354e-01 -9.842520e-01 0.000000e+00
7.322835e-01 -9.842520e-01 0.000000e+00
7.480315e-01 -9.842520e-01 0.000000e+00
7.637795e-01 -9.842520e-01 0.000000e+00
7.795276e-01 -9.842520e-01 0.000000e+00
7.952756e-01 -9.842520e-01 0.000000e+00
8.110236e-01 -9.842520e-01 0.000000e+00
[...]
POINT_DATA 16384 
SCALARS concentration double 1 
LOOKUP_TABLE default 
2.590496e+00 
2.565979e+00 
2.541587e+00 
2.517320e+00 
2.493183e+00 
2.469179e+00 
2.445310e+00 
2.421580e+00 
2.397992e+00 
2.374549e+00 
2.351255e+00 
2.328113e+00 
2.305126e+00 
2.282300e+00 
2.259636e+00 
2.237139e+00 
2.214814e+00 
2.192663e+00 
2.170691e+00 
2.148903e+00 
2.127303e+00 
2.105894e+00 
2.084682e+00 
2.063671e+00 
2.042866e+00 
2.022272e+00 
2.001893e+00 
1.981735e+00 
1.961802e+00 
1.942101e+00 
1.922635e+00 
1.903411e+00 
1.884435e+00 
1.865711e+00 
1.847245e+00 
1.829044e+00 
1.811113e+00 
1.793458e+00 
1.776085e+00 
1.759001e+00 
1.742211e+00 
1.725722e+00 
1.709541e+00 
1.693674e+00 
1.678127e+00 
1.662907e+00 
1.648021e+00 
1.633475e+00 
1.619276e+00 
1.605432e+00 
1.591948e+00 
1.578832e+00 
1.566089e+00 
1.553728e+00 
1.541755e+00 
1.530177e+00 
1.518999e+00 
1.508229e+00 
1.497873e+00 
1.487938e+00 
1.478430e+00 
1.469354e+00 
1.460717e+00 
1.452525e+00 
1.444783e+00 
1.437497e+00 
1.430671e+00 
1.424308e+00 
1.418412e+00 
1.412976e+00 
1.407981e+00 
1.403374e+00 
1.399044e+00 
1.394838e+00 
1.390688e+00 
1.386739e+00 
1.383116e+00 
1.379893e+00 
1.377111e+00 
1.374787e+00 
1.372931e+00 
1.371546e+00 
1.370635e+00 
1.370198e+00 
1.370236e+00 
1.370749e+00 
1.371737e+00 
1.373197e+00 
1.375129e+00 
1.377532e+00 
1.380403e+00 
1.383741e+00 
1.387542e+00 
1.391805e+00 
1.396526e+00 
1.401702e+00 
1.407329e+00 
1.413405e+00 
1.419924e+00 
1.426882e+00 
1.434277e+00 
1.442102e+00 
1.450353e+00 
1.459026e+00 
1.468115e+00 
1.477616e+00 
1.487522e+00 
1.497830e+00 
1.508532e+00 
1.519625e+00 
1.531102e+00 
1.542957e+00 
1.555185e+00 
1.567781e+00 
1.580737e+00 
1.594049e+00 
1.607710e+00 
1.621714e+00 
1.636056e+00 
1.650730e+00 
1.665729e+00 
1.681048e+00 
1.696681e+00 
1.712622e+00 
1.728865e+00 
1.745403e+00 
1.762232e+00 
1.779346e+00 
2.570892e+00 
2.546222e+00 
2.521674e+00 
2.497250e+00 
2.472954e+00 
2.448789e+00 
2.424757e+00 
2.400862e+00 
2.377107e+00 
2.353496e+00 
2.330031e+00 
2.306717e+00 
2.283557e+00 
2.260554e+00 
2.237713e+00 
2.215036e+00 
2.192529e+00 
2.170195e+00 
2.148038e+00 
2.126062e+00 
2.104273e+00 
2.082673e+00 
2.061268e+00 
2.040063e+00 
2.019062e+00 
1.998270e+00 
1.977691e+00 
1.957332e+00 
1.937197e+00 
1.917291e+00 
1.897621e+00 
1.878190e+00 
1.859006e+00 
1.840073e+00 
1.821398e+00 
1.802987e+00 
1.784845e+00 
1.766978e+00 
1.749394e+00 
1.732098e+00 
1.715097e+00 
1.698397e+00 
1.682005e+00 
1.665928e+00 
1.650172e+00 
1.634745e+00 
1.619653e+00 
1.604903e+00 
1.590502e+00 
1.576458e+00 
1.562777e+00 
1.549467e+00 
1.536534e+00 
1.523986e+00 
1.511829e+00 
1.500071e+00 
1.488718e+00 
1.477778e+00 
1.467257e+00 
1.457162e+00 
1.447499e+00 
1.438275e+00 
1.429496e+00 
1.421167e+00 
1.413295e+00 
1.405886e+00 
1.398944e+00 
1.392472e+00 
1.386473e+00 
1.380940e+00 
1.375854e+00 
1.371162e+00 
1.366760e+00 
1.362507e+00 
1.358310e+00 
1.354310e+00 
1.350631e+00 
1.347353e+00 
1.344518e+00 
1.342147e+00 
1.340251e+00 
1.338834e+00 
1.337899e+00 
1.337447e+00 
1.337478e+00 
1.337991e+00 
1.338986e+00 
1.340463e+00 
1.342418e+00 
1.344852e+00 
1.347760e+00 
1.351143e+00 
1.354996e+00 
1.359316e+00 
1.364101e+00 
1.369347e+00 
1.375050e+00 
1.381207e+00 
1.387813e+00 
1.394864e+00 
1.402355e+00 
1.410282e+00 
1.418640e+00 
1.427423e+00 
1.436627e+00 
1.446246e+00 
1.456276e+00 
1.466709e+00 
1.477542e+00 
1.488768e+00 
1.500381e+00 
1.512376e+00 
1.524747e+00 
1.537488e+00 
1.550593e+00 
1.564055e+00 
1.577870e+00 
1.592031e+00 
1.606533e+00 
1.621368e+00 
1.636531e+00 
1.652017e+00 
1.667818e+00 
1.683930e+00 
1.700345e+00 
1.717059e+00 
1.734066e+00 
1.751359e+00 
2.551437e+00 
2.526609e+00 
2.501902e+00 
2.477317e+00 
2.452857e+00 
2.428527e+00 
2.404328e+00 
2.380263e+00 
2.356337e+00 
2.332552e+00 
2.308911e+00 
2.285419e+00 
2.262079e+00 
2.238894e+00 
2.215867e+00 
2.193004e+00 
2.170308e+00 
2.147783e+00 
2.125433e+00 
2.103262e+00 
2.081275e+00 
2.059476e+00 
2.037870e+00 
2.016462e+00 
1.995255e+00 
1.974256e+00 
1.953469e+00 
1.932900e+00 
1.912553e+00 
1.892434e+00 
1.872549e+00 
1.852903e+00 
1.833502e+00 
1.814351e+00 
1.795458e+00 
1.776828e+00 
1.758466e+00 
1.740381e+00 
1.722577e+00 
1.705063e+00 
1.687843e+00 
1.670926e+00 
1.654317e+00 
1.638025e+00 
1.622055e+00 
1.606416e+00 
1.591114e+00 
1.576157e+00 
1.561551e+00 
1.547305e+00 
1.533425e+00 
1.519919e+00 
1.506794e+00 
1.494058e+00 
1.481718e+00 
1.469781e+00 
1.458254e+00 
1.447144e+00 
1.436459e+00 
1.426205e+00 
1.416389e+00 
1.407018e+00 
1.398098e+00 
1.389635e+00 
1.381635e+00 
1.374104e+00 
1.367048e+00 
1.360469e+00 
1.354368e+00 
1.348741e+00 
1.343568e+00 
1.338800e+00 
1.334346e+00 
1.330077e+00 
1.325872e+00 
1.321849e+00 
1.318135e+00 
1.314817e+00 
1.311944e+00 
1.309540e+00 
1.307619e+00 
1.306184e+00 
1.305238e+00 
1.304784e+00 
1.304820e+00 
1.305346e+00 
1.306361e+00 
1.307865e+00 
1.309855e+00 
1.312330e+00 
1.315287e+00 
1.318724e+00 
1.322638e+00 
1.327025e+00 
1.331883e+00 
1.337207e+00 
1.342993e+00 
1.349239e+00 
1.355938e+00 
1.363087e+00 
1.370681e+00 
1.378714e+00 
1.387183e+00 
1.396081e+00 
1.405403e+00 
1.415144e+00 
1.425298e+00 
1.435859e+00 
1.446823e+00 
1.458182e+00 
1.469931e+00 
1.482064e+00 
1.494576e+00 
1.507459e+00 
1.520709e+00 
1.534318e+00 
1.548282e+00 
1.562593e+00 
1.577246e+00 
1.592235e+00 
1.607554e+00 
1.623196e+00 
1.639156e+00 
1.655427e+00 
1.672004e+00 
1.688881e+00 
1.706052e+00 
1.723511e+00 
2.532082e+00 
2.507092e+00 
2.482220e+00 
2.457468e+00 
2.432839e+00 
2.408337e+00 
2.383964e+00 
2.359724e+00 
2.335619e+00 
2.311653e+00 
2.287830e+00 
2.264152e+00 
2.240624e+00 
2.217249e+00 
2.194030e+00 
2.170972e+00 
2.148079e+00 
2.125355e+00 
2.102804e+00 
2.080430e+00 
2.058238e+00 
2.036232e+00 
2.014416e+00 
1.992797e+00 
1.971378e+00 
1.950165e+00 
1.929162e+00 
1.908375e+00 
1.887810e+00 
1.867472e+00 
1.847367e+00 
1.827500e+00 
1.807878e+00 
1.788506e+00 
1.769391e+00 
1.750539e+00 
1.731956e+00 
1.713649e+00 
1.695625e+00 
1.677891e+00 
1.660453e+00 
1.643319e+00 
1.626495e+00 
1.609989e+00 
1.593809e+00 
1.577960e+00 
1.562452e+00 
1.547290e+00 
1.532484e+00 
1.518040e+00 
1.503966e+00 
1.490270e+00 
1.476959e+00 
1.464040e+00 
1.451522e+00 
1.439411e+00 
1.427715e+00 
1.416442e+00 
1.405598e+00 
1.395191e+00 
1.385228e+00 
1.375715e+00 
1.366658e+00 
1.358066e+00 
1.349943e+00 
1.342295e+00 
1.335128e+00 
1.328445e+00 
1.322248e+00 
1.316532e+00 
1.311279e+00 
1.306450e+00 
1.301965e+00 
1.297706e+00 
1.293533e+00 
1.289516e+00 
1.285786e+00 
1.282443e+00 
1.279544e+00 
1.277120e+00 
1.275184e+00 
1.273742e+00 
1.272796e+00 
1.272349e+00 
1.272400e+00 
1.272948e+00 
1.273992e+00 
1.275532e+00 
1.277565e+00 
1.280089e+00 
1.283102e+00 
1.286600e+00 
1.290582e+00 
1.295043e+00 
1.299980e+00 
1.305388e+00 
1.311265e+00 
1.317605e+00 
1.324404e+00 
1.331656e+00 
1.339358e+00 
1.347504e+00 
1.356089e+00 
1.365106e+00 
1.374552e+00 
1.384419e+00 
1.394702e+00 
1.405396e+00 
1.416494e+00 
1.427990e+00 
1.439878e+00 
1.452152e+00 
1.464807e+00 
1.477834e+00 
1.491230e+00 
1.504987e+00 
1.519099e+00 
1.533560e+00 
1.548363e+00 
1.563504e+00 
1.578974e+00 
1.594769e+00 
1.610883e+00 
1.627309e+00 
1.644040e+00 
1.661073e+00 
1.678399e+00 
1.696014e+00 
2.512756e+00 
2.487597e+00 
2.462553e+00 
2.437628e+00 
2.412824e+00 
2.388143e+00 
2.363590e+00 
2.339166e+00 
2.314876e+00 
2.290723e+00 
2.266710e+00 
2.242840e+00 
2.219118e+00 
2.195547e+00 
2.172130e+00 
2.148872e+00 
2.125777e+00 
2.102848e+00 
2.080091e+00 
2.057509e+00 
2.035108e+00 
2.012891e+00 
1.990864e+00 
1.969031e+00 
1.947397e+00 
1.925969e+00 
1.904750e+00 
1.883746e+00 
1.862963e+00 
1.842407e+00 
1.822084e+00 
1.801999e+00 
1.782158e+00 
1.762568e+00 
1.743236e+00 
1.724167e+00 
1.705369e+00 
1.686847e+00 
1.668610e+00 
1.650663e+00 
1.633015e+00 
1.615672e+00 
1.598641e+00 
1.581930e+00 
1.565547e+00 
1.549498e+00 
1.533792e+00 
1.518437e+00 
1.503439e+00 
1.488806e+00 
1.474547e+00 
1.460669e+00 
1.447180e+00 
1.434088e+00 
1.421400e+00 
1.409123e+00 
1.397266e+00 
1.385836e+00 
1.374841e+00 
1.364287e+00 
1.354181e+00 
1.344532e+00 
1.335345e+00 
1.326627e+00 
1.318385e+00 
1.310625e+00 
1.303351e+00 
1.296567e+00 
1.290277e+00 
1.284477e+00 
1.279153e+00 
1.274273e+00 
1.269771e+00 
1.265535e+00 
1.261421e+00 
1.257426e+00 
1.253691e+00 
1.250331e+00 
1.247414e+00 
1.244974e+00 
1.243029e+00 
1.241585e+00 
1.240644e+00 
1.240209e+00 
1.240278e+00 
1.240853e+00 
1.241930e+00 
1.243510e+00 
1.245589e+00 
1.248166e+00 
1.251238e+00 
1.254803e+00 
1.258856e+00 
1.263395e+00 
1.268415e+00 
1.273913e+00 
1.279884e+00 
1.286324e+00 
1.293227e+00 
1.300589e+00 
1.308404e+00 
1.316668e+00 
1.325374e+00 
1.334517e+00 
1.344092e+00 
1.354091e+00 
1.364510e+00 
1.375342e+00 
1.386580e+00 
1.398219e+00 
1.410253e+00 
1.422674e+00 
1.435477e+00 
1.448656e+00 
1.462203e+00 
1.476112e+00 
1.490378e+00 
1.504993e+00 
1.519952e+00 
1.535248e+00 
1.550874e+00 
1.566825e+00 
1.583094e+00 
1.599676e+00 
1.616563e+00 
1.633751e+00 
1.651233e+00 
1.669003e+00 
2.493378e+00 
2.468046e+00 
2.442826e+00 
2.417723e+00 
2.392738e+00 
2.367876e+00 
2.343138e+00 
2.318529e+00 
2.294051e+00 
2.269707e+00 
2.245502e+00 
2.221439e+00 
2.197522e+00 
2.173754e+00 
2.150139e+00 
2.126681e+00 
2.103384e+00 
2.080254e+00 
2.057293e+00 
2.034507e+00 
2.011900e+00 
1.989477e+00 
1.967242e+00 
1.945202e+00 
1.923360e+00 
1.901723e+00 
1.880295e+00 
1.859082e+00 
1.838091e+00 
1.817326e+00 
1.796794e+00 
1.776501e+00 
1.756453e+00 
1.736656e+00 
1.717118e+00 
1.697844e+00 
1.678841e+00 
1.660117e+00 
1.641678e+00 
1.623531e+00 
1.605684e+00 
1.588143e+00 
1.570917e+00 
1.554013e+00 
1.537438e+00 
1.521200e+00 
1.505307e+00 
1.489767e+00 
1.474587e+00 
1.459775e+00 
1.445339e+00 
1.431288e+00 
1.417628e+00 
1.404368e+00 
1.391516e+00 
1.379080e+00 
1.367067e+00 
1.355485e+00 
1.344341e+00 
1.333644e+00 
1.323400e+00 
1.313616e+00 
1.304301e+00 
1.295460e+00 
1.287100e+00 
1.279227e+00 
1.271847e+00 
1.264965e+00 
1.258583e+00 
1.252700e+00 
1.247308e+00 
1.242381e+00 
1.237863e+00 
1.233650e+00 
1.229599e+00 
1.225632e+00 
1.221896e+00 
1.218521e+00 
1.215587e+00 
1.213134e+00 
1.211181e+00 
1.209735e+00 
1.208801e+00 
1.208379e+00 
1.208469e+00 
1.209071e+00 
1.210183e+00 
1.211805e+00 
1.213933e+00 
1.216566e+00 
1.219700e+00 
1.223334e+00 
1.227462e+00 
1.232083e+00 
1.237190e+00 
1.242782e+00 
1.248851e+00 
1.255395e+00 
1.262408e+00 
1.269884e+00 
1.277818e+00 
1.286205e+00 
1.295039e+00 
1.304313e+00 
1.314023e+00 
1.324161e+00 
1.334721e+00 
1.345697e+00 
1.357083e+00 
1.368872e+00 
1.381057e+00 
1.393632e+00 
1.406591e+00 
1.419927e+00 
1.433632e+00 
1.447701e+00 
1.462128e+00 
1.476904e+00 
1.492025e+00 
1.507483e+00 
1.523271e+00 
1.539385e+00 
1.555816e+00 
1.572560e+00 
1.589609e+00 
1.606958e+00 
1.624600e+00 
1.642529e+00 
2.473907e+00 
2.448402e+00 
2.423007e+00 
2.397728e+00 
2.372565e+00 
2.347523e+00 
2.322605e+00 
2.297813e+00 
2.273151e+00 
2.248623e+00 
2.224232e+00 
2.199982e+00 
2.175876e+00 
2.151919e+00 
2.128114e+00 
2.104465e+00 
2.080977e+00 
2.057654e+00 
2.034500e+00 
2.011520e+00 
1.988719e+00 
1.966101e+00 
1.943672e+00 
1.921436e+00 
1.899400e+00 
1.877567e+00 
1.855944e+00 
1.834536e+00 
1.813350e+00 
1.792390e+00 
1.771664e+00 
1.751176e+00 
1.730934e+00 
1.710944e+00 
1.691213e+00 
1.671747e+00 
1.652552e+00 
1.633637e+00 
1.615008e+00 
1.596672e+00 
1.578637e+00 
1.560909e+00 
1.543497e+00 
1.526408e+00 
1.509650e+00 
1.493230e+00 
1.477157e+00 
1.461438e+00 
1.446081e+00 
1.431095e+00 
1.416486e+00 
1.402264e+00 
1.388437e+00 
1.375012e+00 
1.361998e+00 
1.349402e+00 
1.337234e+00 
1.325499e+00 
1.314208e+00 
1.303366e+00 
1.292982e+00 
1.283064e+00 
1.273618e+00 
1.264651e+00 
1.256172e+00 
1.248185e+00 
1.240698e+00 
1.233714e+00 
1.227239e+00 
1.221274e+00 
1.215811e+00 
1.210833e+00 
1.206291e+00 
1.202087e+00 
1.198080e+00 
1.194149e+00 
1.190415e+00 
1.187027e+00 
1.184078e+00 
1.181612e+00 
1.179652e+00 
1.178206e+00 
1.177278e+00 
1.176871e+00 
1.176983e+00 
1.177614e+00 
1.178764e+00 
1.180430e+00 
1.182610e+00 
1.185302e+00 
1.188503e+00 
1.192209e+00 
1.196417e+00 
1.201123e+00 
1.206323e+00 
1.212013e+00 
1.218187e+00 
1.224840e+00 
1.231967e+00 
1.239563e+00 
1.247622e+00 
1.256138e+00 
1.265105e+00 
1.274517e+00 
1.284367e+00 
1.294650e+00 
1.305358e+00 
1.316484e+00 
1.328024e+00 
1.339968e+00 
1.352312e+00 
1.365047e+00 
1.378168e+00 
1.391667e+00 
1.405537e+00 
1.419772e+00 
1.434365e+00 
1.449309e+00 
1.464598e+00 
1.480224e+00 
1.496182e+00 
1.512464e+00 
1.529064e+00 
1.545976e+00 
1.563193e+00 
1.580709e+00 
1.598518e+00 
1.616614e+00 
2.454391e+00 
2.428721e+00 
2.403161e+00 
2.377714e+00 
2.352384e+00 
2.327173e+00 
2.302085e+00 
2.277123e+00 
2.252289e+00 
2.227589e+00 
2.203025e+00 
2.178601e+00 
2.154321e+00 
2.130188e+00 
2.106207e+00 
2.082382e+00 
2.058716e+00 
2.035216e+00 
2.011884e+00 
1.988725e+00 
1.965745e+00 
1.942948e+00 
1.920338e+00 
1.897922e+00 
1.875705e+00 
1.853691e+00 
1.831887e+00 
1.810298e+00 
1.788929e+00 
1.767787e+00 
1.746878e+00 
1.726208e+00 
1.705783e+00 
1.685610e+00 
1.665696e+00 
1.646046e+00 
1.626669e+00 
1.607570e+00 
1.588758e+00 
1.570239e+00 
1.552021e+00 
1.534111e+00 
1.516516e+00 
1.499246e+00 
1.482306e+00 
1.465706e+00 
1.449454e+00 
1.433556e+00 
1.418022e+00 
1.402860e+00 
1.388077e+00 
1.373683e+00 
1.359685e+00 
1.346092e+00 
1.332913e+00 
1.320154e+00 
1.307826e+00 
1.295935e+00 
1.284491e+00 
1.273501e+00 
1.262972e+00 
1.252914e+00 
1.243333e+00 
1.234237e+00 
1.225633e+00 
1.217528e+00 
1.209928e+00 
1.202840e+00 
1.196268e+00 
1.190214e+00 
1.184675e+00 
1.179637e+00 
1.175056e+00 
1.170840e+00 
1.166850e+00 
1.162956e+00 
1.159225e+00 
1.155825e+00 
1.152859e+00 
1.150379e+00 
1.148409e+00 
1.146961e+00 
1.146038e+00 
1.145643e+00 
1.145775e+00 
1.146435e+00 
1.147621e+00 
1.149331e+00 
1.151563e+00 
1.154314e+00 
1.157581e+00 
1.161362e+00 
1.165651e+00 
1.170445e+00 
1.175740e+00 
1.181531e+00 
1.187812e+00 
1.194579e+00 
1.201825e+00 
1.209546e+00 
1.217735e+00 
1.226386e+00 
1.235493e+00 
1.245049e+00 
1.255047e+00 
1.265481e+00 
1.276345e+00 
1.287631e+00 
1.299332e+00 
1.311441e+00 
1.323951e+00 
1.336856e+00 
1.350147e+00 
1.363819e+00 
1.377863e+00 
1.392274e+00 
1.407043e+00 
1.422164e+00 
1.437630e+00 
1.453434e+00 
1.469570e+00 
1.486030e+00 
1.502808e+00 
1.519897e+00 
1.537291e+00 
1.554983e+00 
1.572967e+00 
1.591237e+00 
2.434985e+00 
2.409165e+00 
2.383453e+00 
2.357855e+00 
2.332372e+00 
2.307007e+00 
2.281765e+00 
2.256647e+00 
2.231658e+00 
2.206801e+00 
2.182079e+00 
2.157496e+00 
2.133056e+00 
2.108763e+00 
2.084621e+00 
2.060634e+00 
2.036806e+00 
2.013141e+00 
1.989644e+00 
1.966320e+00 
1.943173e+00 
1.920208e+00 
1.897431e+00 
1.874845e+00 
1.852457e+00 
1.830272e+00 
1.808295e+00 
1.786532e+00 
1.764989e+00 
1.743672e+00 
1.722586e+00 
1.701739e+00 
1.681135e+00 
1.660783e+00 
1.640688e+00 
1.620857e+00 
1.601297e+00 
1.582015e+00 
1.563019e+00 
1.544316e+00 
1.525913e+00 
1.507817e+00 
1.490038e+00 
1.472581e+00 
1.455456e+00 
1.438670e+00 
1.422232e+00 
1.406150e+00 
1.390432e+00 
1.375086e+00 
1.360122e+00 
1.345547e+00 
1.331371e+00 
1.317601e+00 
1.304247e+00 
1.291317e+00 
1.278820e+00 
1.266764e+00 
1.255157e+00 
1.244009e+00 
1.233327e+00 
1.223119e+00 
1.213394e+00 
1.204159e+00 
1.195422e+00 
1.187190e+00 
1.179470e+00 
1.172268e+00 
1.165590e+00 
1.159440e+00 
1.153816e+00 
1.148705e+00 
1.144068e+00 
1.139817e+00 
1.135818e+00 
1.131933e+00 
1.128191e+00 
1.124768e+00 
1.121776e+00 
1.119271e+00 
1.117281e+00 
1.115818e+00 
1.114888e+00 
1.114495e+00 
1.114637e+00 
1.115316e+00 
1.116528e+00 
1.118274e+00 
1.120549e+00 
1.123352e+00 
1.126680e+00 
1.130529e+00 
1.134895e+00 
1.139773e+00 
1.145160e+00 
1.151050e+00 
1.157438e+00 
1.164318e+00 
1.171686e+00 
1.179533e+00 
1.187856e+00 
1.196646e+00 
1.205898e+00 
1.215605e+00 
1.225759e+00 
1.236354e+00 
1.247383e+00 
1.258838e+00 
1.270712e+00 
1.282998e+00 
1.295688e+00 
1.308775e+00 
1.322252e+00 
1.336111e+00 
1.350345e+00 
1.364947e+00 
1.379909e+00 
1.395223e+00 
1.410884e+00 
1.426883e+00 
1.443214e+00 
1.459869e+00 
1.476842e+00 
1.494126e+00 
1.511713e+00 
1.529599e+00 
1.547775e+00 
1.566236e+00 
2.415911e+00 
2.389954e+00 
2.364106e+00 
2.338370e+00 
2.312748e+00 
2.287243e+00 
2.261859e+00 
2.236599e+00 
2.211466e+00 
2.186463e+00 
2.161595e+00 
2.136865e+00 
2.112276e+00 
2.087832e+00 
2.063538e+00 
2.039397e+00 
2.015414e+00 
1.991593e+00 
1.967938e+00 
1.944454e+00 
1.921145e+00 
1.898017e+00 
1.875075e+00 
1.852322e+00 
1.829766e+00 
1.807410e+00 
1.785261e+00 
1.763324e+00 
1.741605e+00 
1.720109e+00 
1.698844e+00 
1.677815e+00 
1.657028e+00 
1.636490e+00 
1.616208e+00 
1.596189e+00 
1.576439e+00 
1.556966e+00 
1.537777e+00 
1.518879e+00 
1.500281e+00 
1.481989e+00 
1.464012e+00 
1.446357e+00 
1.429033e+00 
1.412049e+00 
1.395412e+00 
1.379130e+00 
1.363214e+00 
1.347670e+00 
1.332509e+00 
1.317739e+00 
1.303368e+00 
1.289406e+00 
1.275862e+00 
1.262744e+00 
1.250062e+00 
1.237825e+00 
1.226040e+00 
1.214718e+00 
1.203867e+00 
1.193495e+00 
1.183611e+00 
1.174223e+00 
1.165339e+00 
1.156967e+00 
1.149114e+00 
1.141787e+00 
1.134992e+00 
1.128733e+00 
1.123011e+00 
1.117814e+00 
1.113104e+00 
1.108799e+00 
1.104767e+00 
1.100844e+00 
1.097067e+00 
1.093603e+00 
1.090566e+00 
1.088018e+00 
1.085990e+00 
1.084496e+00 
1.083545e+00 
1.083137e+00 
1.083276e+00 
1.083959e+00 
1.085186e+00 
1.086955e+00 
1.089263e+00 
1.092109e+00 
1.095488e+00 
1.099397e+00 
1.103833e+00 
1.108789e+00 
1.114263e+00 
1.120249e+00 
1.126741e+00 
1.133733e+00 
1.141220e+00 
1.149195e+00 
1.157652e+00 
1.166584e+00 
1.175984e+00 
1.185846e+00 
1.196161e+00 
1.206923e+00 
1.218124e+00 
1.229756e+00 
1.241813e+00 
1.254285e+00 
1.267166e+00 
1.280449e+00 
1.294124e+00 
1.308184e+00 
1.322623e+00 
1.337431e+00 
1.352602e+00 
1.368127e+00 
1.384000e+00 
1.400212e+00 
1.416757e+00 
1.433628e+00 
1.450816e+00 
1.468315e+00 
1.486119e+00 
1.504219e+00 
1.522609e+00 
1.541284e+00 
2.397362e+00 
2.371278e+00 
2.345301e+00 
2.319433e+00 
2.293679e+00 
2.268040e+00 
2.242520e+00 
2.217122e+00 
2.191849e+00 
2.166705e+00 
2.141694e+00 
2.116818e+00 
2.092081e+00 
2.067487e+00 
2.043041e+00 
2.018746e+00 
1.994606e+00 
1.970626e+00 
1.946809e+00 
1.923162e+00 
1.899687e+00 
1.876390e+00 
1.853276e+00 
1.830350e+00 
1.807617e+00 
1.785082e+00 
1.762752e+00 
1.740630e+00 
1.718725e+00 
1.697040e+00 
1.675583e+00 
1.654360e+00 
1.633377e+00 
1.612640e+00 
1.592157e+00 
1.571935e+00 
1.551980e+00 
1.532299e+00 
1.512902e+00 
1.493793e+00 
1.474983e+00 
1.456478e+00 
1.438287e+00 
1.420417e+00 
1.402878e+00 
1.385677e+00 
1.368824e+00 
1.352327e+00 
1.336194e+00 
1.320436e+00 
1.305062e+00 
1.290079e+00 
1.275498e+00 
1.261328e+00 
1.247578e+00 
1.234258e+00 
1.221377e+00 
1.208944e+00 
1.196969e+00 
1.185460e+00 
1.174427e+00 
1.163879e+00 
1.153825e+00 
1.144274e+00 
1.135233e+00 
1.126711e+00 
1.118716e+00 
1.111255e+00 
1.104335e+00 
1.097960e+00 
1.092133e+00 
1.086841e+00 
1.082050e+00 
1.077682e+00 
1.073603e+00 
1.069647e+00 
1.065838e+00 
1.062331e+00 
1.059247e+00 
1.056655e+00 
1.054590e+00 
1.053067e+00 
1.052096e+00 
1.051680e+00 
1.051818e+00 
1.052512e+00 
1.053759e+00 
1.055558e+00 
1.057907e+00 
1.060802e+00 
1.064240e+00 
1.068217e+00 
1.072729e+00 
1.077771e+00 
1.083339e+00 
1.089426e+00 
1.096027e+00 
1.103137e+00 
1.110748e+00 
1.118855e+00 
1.127450e+00 
1.136526e+00 
1.146077e+00 
1.156094e+00 
1.166571e+00 
1.177500e+00 
1.188872e+00 
1.200681e+00 
1.212917e+00 
1.225575e+00 
1.238644e+00 
1.252118e+00 
1.265988e+00 
1.280247e+00 
1.294887e+00 
1.309899e+00 
1.325275e+00 
1.341009e+00 
1.357092e+00 
1.373516e+00 
1.390275e+00 
1.407360e+00 
1.424764e+00 
1.442480e+00 
1.460500e+00 
1.478818e+00 
1.497427e+00 
1.516319e+00 
2.379433e+00 
2.353221e+00 
2.327114e+00 
2.301115e+00 
2.275226e+00 
2.249450e+00 
2.223791e+00 
2.198252e+00 
2.172835e+00 
2.147545e+00 
2.122384e+00 
2.097357e+00 
2.072466e+00 
2.047716e+00 
2.023110e+00 