# vtk DataFile Version 2.0 
Quadtree Mesh 
ASCII 
DATASET UNSTRUCTURED_GRID 
POINTS 16384 double 
-1.000000e+00 -1.000000e+00 0.000000e+00
-9.842520e-01 -1.000000e+00 0.000000e+00
-9.685039e-01 -1.000000e+00 0.000000e+00
-9.527559e-01 -1.000000e+00 0.000000e+00
-9.370079e-01 -1.000000e+00 0.000000e+00
-9.212598e-01 -1.000000e+00 0.000000e+00
-9.055118e-01 -1.000000e+00 0.000000e+00
-8.897638e-01 -1.000000e+00 0.000000e+00
-8.740157e-01 -1.000000e+00 0.000000e+00
-8.582677e-01 -1.000000e+00 0.000000e+00
-8.425197e-01 -1.000000e+00 0.000000e+00
-8.267717e-01 -1.000000e+00 0.000000e+00
-8.110236e-01 -1.000000e+00 0.000000e+00
-7.952756e-01 -1.000000e+00 0.000000e+00
-7.795276e-01 -1.000000e+00 0.000000e+00
-7.637795e-01 -1.000000e+00 0.000000e+00
-7.480315e-01 -1.000000e+00 0.000000e+00
-7.322835e-01 -1.000000e+00 0.000000e+00
-7.165354e-01 -1.000000e+00 0.000000e+00
-7.007874e-01 -1.000000e+00 0.000000e+00
-6.850394e-01 -1.000000e+00 0.000000e+00
-6.692913e-01 -1.000000e+00 0.000000e+00
-6.535433e-01 -1.000000e+00 0.000000e+00
-6.377953e-01 -1.000000e+00 0.000000e+00
-6.220472e-01 -1.000000e+00 0.000000e+00
-6.062992e-01 -1.000000e+00 0.000000e+00
-5.905512e-01 -1.000000e+00 0.000000e+00
-5.748031e-01 -1.000000e+00 0.000000e+00
-5.590551e-01 -1.000000e+00 0.000000e+00
-5.433071e-01 -1.000000e+00 0.000000e+00
-5.275591e-01 -1.000000e+00 0.000000e+00
-5.118110e-01 -1.000000e+00 0.000000e+00
-4.960630e-01 -1.000000e+00 0.000000e+00
-4.803150e-01 -1.000000e+00 0.000000e+00
-4.645669e-01 -1.000000e+00 0.000000e+00
-4.488189e-01 -1.000000e+00 0.000000e+00
-4.330709e-01 -1.000000e+00 0.000000e+00
-4.173228e-01 -1.000000e+00 0.000000e+00
-4.015748e-01 -1.000000e+00 0.000000e+00
-3.858268e-01 -1.000000e+00 0.000000e+00
-3.700787e-01 -1.000000e+00 0.000000e+00
-3.543307e-01 -1.000000e+00 0.000000e+00
-3.385827e-01 -1.000000e+00 0.000000e+00
-3.228346e-01 -1.000000e+00 0.000000e+00
-3.070866e-01 -1.000000e+00 0.000000e+00
-2.913386e-01 -1.000000e+00 0.000000e+00
-2.755906e-01 -1.000000e+00 0.000000e+00
-2.598425e-01 -1.000000e+00 0.000000e+00
-2.440945e-01 -1.000000e+00 0.000000e+00
-2.283465e-01 -1.000000e+00 0.000000e+00
-2.125984e-01 -1.000000e+00 0.000000e+00
-1.968504e-01 -1.000000e+00 0.000000e+00
-1.811024e-01 -1.000000e+00 0.000000e+00
-1.653543e-01 -1.000000e+00 0.000000e+00
-1.496063e-01 -1.000000e+00 0.000000e+00
-1.338583e-01 -1.000000e+00 0.000000e+00
-1.181102e-01 -1.000000e+00 0.000000e+00
-1.023622e-01 -1.000000e+00 0.000000e+00
-8.661417e-02 -1.000000e+00 0.000000e+00
-7.086614e-02 -1.000000e+00 0.000000e+00
-5.511811e-02 -1.000000e+00 0.000000e+00
-3.937008e-02 -1.000000e+00 0.000000e+00
-2.362205e-02 -1.000000e+00 0.000000e+00
-7.874016e-03 -1.000000e+00 0.000000e+00
7.874016e-03 -1.000000e+00 0.000000e+00
2.362205e-02 -1.000000e+00 0.000000e+00
3.937008e-02 -1.000000e+00 0.000000e+00
5.511811e-02 -1.000000e+00 0.000000e+00
7.086614e-02 -1.000000e+00 0.000000e+00
8.661417e-02 -1.000000e+00 0.000000e+00
1.023622e-01 -1.000000e+00 0.000000e+00
1.181102e-01 -1.000000e+00 0.000000e+00
1.338583e-01 -1.000000e+00 0.000000e+00
1.496063e-01 -1.000000e+00 0.000000e+00
1.653543e-01 -1.000000e+00 0.000000e+00
1.811024e-01 -1.000000e+00 0.000000e+00
1.968504e-01 -1.000000e+00 0.000000e+00
2.125984e-01 -1.000000e+00 0.000000e+00
2.283465e-01 -1.000000e+00 0.000000e+00
2.440945e-01 -1.000000e+00 0.000000e+00
2.598425e-01 -1.000000e+00 0.000000e+00
2.755906e-01 -1.000000e+00 0.000000e+00
2.913386e-01 -1.000000e+00 0.000000e+00
3.070866e-01 -1.000000e+00 0.000000e+00
3.228346e-01 -1.000000e+00 0.000000e+00
3.385827e-01 -1.000000e+00 0.000000e+00
3.543307e-01 -1.000000e+00 0.000000e+00
3.700787e-01 -1.000000e+00 0.000000e+00
3.858268e-01 -1.000000e+00 0.000000e+00
4.015748e-01 -1.000000e+00 0.000000e+00
4.173228e-01 -1.000000e+00 0.000000e+00
4.330709e-01 -1.000000e+00 0.000000e+00
4.488189e-01 -1.000000e+00 0.000000e+00
4.645669e-01 -1.000000e+00 0.000000e+00
4.803150e-01 -1.000000e+00 0.000000e+00
4.960630e-01 -1.000000e+00 0.000000e+00
5.118110e-01 -1.000000e+00 0.000000e+00
5.275591e-01 -1.000000e+00 0.000000e+00
5.433071e-01 -1.000000e+00 0.000000e+00
5.590551e-01 -1.000000e+00 0.000000e+00
5.748031e-01 -1.000000e+00 0.000000e+00
5.905512e-01 -1.000000e+00 0.000000e+00
6.062992e-01 -1.000000e+00 0.000000e+00
6.220472e-01 -1.000000e+00 0.000000e+00
6.377953e-01 -1.000000e+00 0.000000e+00
6.535433e-01 -1.000000e+00 0.000000e+00
6.692913e-01 -1.000000e+00 0.000000e+00
6.850394e-01 -1.000000e+00 0.000000e+00
7.007874e-01 -1.000000e+00 0.000000e+00
7.165354e-01 -1.000000e+00 0.000000e+00
7.322835e-01 -1.000000e+00 0.000000e+00
7.480315e-01 -1.000000e+00 0.000000e+00
7.637795e-01 -1.000000e+00 0.000000e+00
7.795276e-01 -1.000000e+00 0.000000e+00
7.952756e-01 -1.000000e+00 0.000000e+00
8.110236e-01 -1.000000e+00 0.000000e+00
8.267717e-01 -1.000000e+00 0.000000e+00
8.425197e-01 -1.000000e+00 0.000000e+00
8.582677e-01 -1.000000e+00 0.000000e+00
8.740157e-01 -1.000000e+00 0.000000e+00
8.897638e-01 -1.000000e+00 0.000000e+00
9.055118e-01 -1.000000e+00 0.000000e+00
9.212598e-01 -1.000000e+00 0.000000e+00
9.370079e-01 -1.000000e+00 0.000000e+00
9.527559e-01 -1.000000e+00 0.000000e+00
9.685039e-01 -1.000000e+00 0.000000e+00
9.842520e-01 -1.000000e+00 0.000000e+00
1.000000e+00 -1.000000e+00 0.000000e+00
-1.000000e+00 -9.842520e-01 0.000000e+00
-9.842520e-01 -9.842520e-01 0.000000e+00
-9.685039e-01 -9.842520e-01 0.000000e+00
-9.527559e-01 -9.842520e-01 0.000000e+00
-9.370079e-01 -9.842520e-01 0.000000e+00
-9.212598e-01 -9.842520e-01 0.000000e+00
-9.055118e-01 -9.842520e-01 0.000000e+00
-8.897638e-01 -9.842520e-01 0.000000e+00
-8.740157e-01 -9.842520e-01 0.000000e+00
-8.582677e-01 -9.842520e-01 0.000000e+00
-8.425197e-01 -9.842520e-01 0.000000e+00
-8.267717e-01 -9.842520e-01 0.000000e+00
-8.110236e-01 -9.842520e-01 0.000000e+00
-7.952756e-01 -9.842520e-01 0.000000e+00
-7.795276e-01 -9.842520e-01 0.000000e+00
-7.637795e-01 -9.842520e-01 0.000000e+00
-7.480315e-01 -9.842520e-01 0.000000e+00
-7.322835e-01 -9.842520e-01 0.000000e+00
-7.165354e-01 -9.842520e-01 0.000000e+00
-7.007874e-01 -9.842520e-01 0.000000e+00
-6.850394e-01 -9.842520e-01 0.000000e+00
-6.692913e-01 -9.842520e-01 0.000000e+00
-6.535433e-01 -9.842520e-01 0.000000e+00
-6.377953e-01 -9.842520e-01 0.000000e+00
-6.220472e-01 -9.842520e-01 0.000000e+00
-6.062992e-01 -9.842520e-01 0.000000e+00
-5.905512e-01 -9.842520e-01 0.000000e+00
-5.748031e-01 -9.842520e-01 0.000000e+00
-5.590551e-01 -9.842520e-01 0.000000e+00
-5.433071e-01 -9.842520e-01 0.000000e+00
-5.275591e-01 -9.842520e-01 0.000000e+00
-5.118110e-01 -9.842520e-01 0.000000e+00
-4.960630e-01 -9.842520e-01 0.000000e+00
-4.803150e-01 -9.842520e-01 0.000000e+00
-4.645669e-01 -9.842520e-01 0.000000e+00
-4.488189e-01 -9.842520e-01 0.000000e+00
-4.330709e-01 -9.842520e-01 0.000000e+00
-4.173228e-01 -9.842520e-01 0.000000e+00
-4.015748e-01 -9.842520e-01 0.000000e+00
-3.858268e-01 -9.842520e-01 0.000000e+00
-3.700787e-01 -9.842520e-01 0.000000e+00
-3.543307e-01 -9.842520e-01 0.000000e+00
-3.385827e-01 -9.842520e-01 0.000000e+00
-3.228346e-01 -9.842520e-01 0.000000e+00
-3.070866e-01 -9.842520e-01 0.000000e+00
-2.913386e-01 -9.842520e-01 0.000000e+00
-2.755906e-01 -9.842520e-01 0.000000e+00
-2.598425e-01 -9.842520e-01 0.000000e+00
-2.440945e-01 -9.842520e-01 0.000000e+00
-2.283465e-01 -9.842520e-01 0.000000e+00
-2.125984e-01 -9.842520e-01 0.000000e+00
-1.968504e-01 -9.842520e-01 0.000000e+00
-1.811024e-01 -9.842520e-01 0.000000e+00
-1.653543e-01 -9.842520e-01 0.000000e+00
-1.496063e-01 -9.842520e-01 0.000000e+00
-1.338583e-01 -9.842520e-01 0.000000e+00
-1.181102e-01 -9.842520e-01 0.000000e+00
-1.023622e-01 -9.842520e-01 0.000000e+00
-8.661417e-02 -9.842520e-01 0.000000e+00
-7.086614e-02 -9.842520e-01 0.000000e+00
-5.511811e-02 -9.842520e-01 0.000000e+00
-3.937008e-02 -9.842520e-01 0.000000e+00
-2.362205e-02 -9.842520e-01 0.000000e+00
-7.874016e-03 -9.842520e-01 0.000000e+00
7.874016e-03 -9.842520e-01 0.000000e+00
2.362205e-02 -9.842520e-01 0.000000e+00
3.937008e-02 -9.842520e-01 0.000000e+00
5.511811e-02 -9.842520e-01 0.000000e+00
7.086614e-02 -9.842520e-01 0.000000e+00
8.661417e-02 -9.842520e-01 0.000000e+00
1.023622e-01 -9.842520e-01 0.000000e+00
1.181102e-01 -9.842520e-01 0.000000e+00
1.338583e-01 -9.842520e-01 0.000000e+00
1.496063e-01 -9.842520e-01 0.000000e+00
1.653543e-01 -9.842520e-01 0.000000e+00
1.811024e-01 -9.842520e-01 0.000000e+00
1.968504e-01 -9.842520e-01 0.000000e+00
2.125984e-01 -9.842520e-01 0.000000e+00
2.283465e-01 -9.842520e-01 0.000000e+00
2.440945e-01 -9.842520e-01 0.000000e+00
2.598425e-01 -9.842520e-01 0.000000e+00
2.755906e-01 -9.842520e-01 0.000000e+00
2.913386e-01 -9.842520e-01 0.000000e+00
3.070866e-01 -9.842520e-01 0.000000e+00
3.228346e-01 -9.842520e-01 0.000000e+00
3.385827e-01 -9.842520e-01 0.000000e+00
3.543307e-01 -9.842520e-01 0.000000e+00
3.700787e-01 -9.842520e-01 0.000000e+00
3.858268e-01 -9.842520e-01 0.000000e+00
4.015748e-01 -9.842520e-01 0.000000e+00
4.173228e-01 -9.842520e-01 0.000000e+00
4.330709e-01 -9.842520e-01 0.000000e+00
4.488189e-01 -9.842520e-01 0.000000e+00
4.645669e-01 -9.842520e-01 0.000000e+00
4.803150e-01 -9.842520e-01 0.000000e+00
4.960630e-01 -9.842520e-01 0.000000e+00
5.118110e-01 -9.842520e-01 0.000000e+00
5.275591e-01 -9.842520e-01 0.000000e+00
5.433071e-01 -9.842520e-01 0.000000e+00
5.590551e-01 -9.842520e-01 0.000000e+00
5.748031e-01 -9.842520e-01 0.000000e+00
5.905512e-01 -9.842520e-01 0.000000e+00
6.062992e-01 -9.842520e-01 0.000000e+00
6.220472e-01 -9.842520e-01 0.000000e+00
6.377953e-01 -9.842520e-01 0.000000e+00
6.535433e-01 -9.842520e-01 0.000000e+00
6.692913e-01 -9.842520e-01 0.000000e+00
6.850394e-01 -9.842520e-01 0.000000e+00
7.007874e-01 -9.842520e-01 0.000000e+00
7.165354e-01 -9.842520e-01 0.000000e+00
7.322835e-01 -9.842520e-01 0.000000e+00
7.480315e-01 -9.842520e-01 0.000000e+00
7.637795e-01 -9.842520e-01 0.000000e+00
7.795276e-01 -9.842520e-01 0.000000e+00
7.952756e-01 -9.842520e-01 0.000000e+00
8.110236e-01 -9.842520e-01 0.000000e+00
[...]
POINT_DATA 16384 
SCALARS concentration double 1 
LOOKUP_TABLE default 
2.739005e+00 
2.714477e+00 
2.690072e+00 
2.665794e+00 
2.641646e+00 
2.617630e+00 
2.593750e+00 
2.570009e+00 
2.546410e+00 
2.522957e+00 
2.499653e+00 
2.476501e+00 
2.453506e+00 
2.430670e+00 
2.407999e+00 
2.385495e+00 
2.363163e+00 
2.341006e+00 
2.319030e+00 
2.297238e+00 
2.275634e+00 
2.254224e+00 
2.233011e+00 
2.212000e+00 
2.191197e+00 
2.170606e+00 
2.150232e+00 
2.130081e+00 
2.110156e+00 
2.090465e+00 
2.071011e+00 
2.051802e+00 
2.032841e+00 
2.014136e+00 
1.995691e+00 
1.977513e+00 
1.959608e+00 
1.941982e+00 
1.924641e+00 
1.907591e+00 
1.890838e+00 
1.874389e+00 
1.858251e+00 
1.842429e+00 
1.826932e+00 
1.811764e+00 
1.796932e+00 
1.782445e+00 
1.768307e+00 
1.754526e+00 
1.741109e+00 
1.728061e+00 
1.715391e+00 
1.703104e+00 
1.691207e+00 
1.679706e+00 
1.668609e+00 
1.657920e+00 
1.647648e+00 
1.637797e+00 
1.628373e+00 
1.619383e+00 
1.610833e+00 
1.602727e+00 
1.595070e+00 
1.587869e+00 
1.581128e+00 
1.574851e+00 
1.569043e+00 
1.563708e+00 
1.558846e+00 
1.554444e+00 
1.550430e+00 
1.546627e+00 
1.543236e+00 
1.540313e+00 
1.537872e+00 
1.535916e+00 
1.534447e+00 
1.533467e+00 
1.532975e+00 
1.532972e+00 
1.533458e+00 
1.534432e+00 
1.535893e+00 
1.537841e+00 
1.540273e+00 
1.543188e+00 
1.546583e+00 
1.550457e+00 
1.554806e+00 
1.559626e+00 
1.564916e+00 
1.570670e+00 
1.576886e+00 
1.583558e+00 
1.590683e+00 
1.598255e+00 
1.606270e+00 
1.614723e+00 
1.623608e+00 
1.632920e+00 
1.642653e+00 
1.652802e+00 
1.663361e+00 
1.674323e+00 
1.685683e+00 
1.697435e+00 
1.709572e+00 
1.722088e+00 
1.734977e+00 
1.748233e+00 
1.761848e+00 
1.775816e+00 
1.790132e+00 
1.804788e+00 
1.819779e+00 
1.835098e+00 
1.850738e+00 
1.866693e+00 
1.882958e+00 
1.899525e+00 
1.916389e+00 
1.933543e+00 
1.950982e+00 
1.968699e+00 
1.986689e+00 
2.004945e+00 
2.719426e+00 
2.694745e+00 
2.670187e+00 
2.645754e+00 
2.621448e+00 
2.597274e+00 
2.573234e+00 
2.549332e+00 
2.525570e+00 
2.501952e+00 
2.478481e+00 
2.455162e+00 
2.431997e+00 
2.408991e+00 
2.386147e+00 
2.363470e+00 
2.340962e+00 
2.318629e+00 
2.296475e+00 
2.274503e+00 
2.252719e+00 
2.231126e+00 
2.209730e+00 
2.188536e+00 
2.167547e+00 
2.146770e+00 
2.126208e+00 
2.105868e+00 
2.085755e+00 
2.065874e+00 
2.046230e+00 
2.026829e+00 
2.007677e+00 
1.988780e+00 
1.970144e+00 
1.951774e+00 
1.933677e+00 
1.915858e+00 
1.898325e+00 
1.881084e+00 
1.864141e+00 
1.847502e+00 
1.831175e+00 
1.815165e+00 
1.799481e+00 
1.784128e+00 
1.769113e+00 
1.754444e+00 
1.740126e+00 
1.726168e+00 
1.712576e+00 
1.699356e+00 
1.686516e+00 
1.674063e+00 
1.662004e+00 
1.650344e+00 
1.639091e+00 
1.628252e+00 
1.617833e+00 
1.607840e+00 
1.598279e+00 
1.589157e+00 
1.580480e+00 
1.572253e+00 
1.564481e+00 
1.557171e+00 
1.550327e+00 
1.543953e+00 
1.538055e+00 
1.532637e+00 
1.527700e+00 
1.523236e+00 
1.519189e+00 
1.515343e+00 
1.511903e+00 
1.508936e+00 
1.506457e+00 
1.504471e+00 
1.502980e+00 
1.501984e+00 
1.501485e+00 
1.501482e+00 
1.501976e+00 
1.502966e+00 
1.504451e+00 
1.506429e+00 
1.508900e+00 
1.511861e+00 
1.515310e+00 
1.519244e+00 
1.523660e+00 
1.528556e+00 
1.533927e+00 
1.539769e+00 
1.546079e+00 
1.552851e+00 
1.560082e+00 
1.567767e+00 
1.575900e+00 
1.584476e+00 
1.593489e+00 
1.602935e+00 
1.612806e+00 
1.623098e+00 
1.633804e+00 
1.644917e+00 
1.656433e+00 
1.668343e+00 
1.680642e+00 
1.693323e+00 
1.706380e+00 
1.719806e+00 
1.733594e+00 
1.747738e+00 
1.762231e+00 
1.777067e+00 
1.792239e+00 
1.807741e+00 
1.823565e+00 
1.839705e+00 
1.856156e+00 
1.872910e+00 
1.889962e+00 
1.907305e+00 
1.924932e+00 
1.942838e+00 
1.961017e+00 
1.979463e+00 
2.700038e+00 
2.675205e+00 
2.650493e+00 
2.625904e+00 
2.601442e+00 
2.577109e+00 
2.552908e+00 
2.528843e+00 
2.504917e+00 
2.481134e+00 
2.457496e+00 
2.434008e+00 
2.410673e+00 
2.387495e+00 
2.364478e+00 
2.341625e+00 
2.318941e+00 
2.296430e+00 
2.274096e+00 
2.251943e+00 
2.229976e+00 
2.208200e+00 
2.186620e+00 
2.165239e+00 
2.144063e+00 
2.123097e+00 
2.102346e+00 
2.081816e+00 
2.061511e+00 
2.041437e+00 
2.021601e+00 
2.002006e+00 
1.982660e+00 
1.963569e+00 
1.944737e+00 
1.926172e+00 
1.907879e+00 
1.889866e+00 
1.872138e+00 
1.854702e+00 
1.837565e+00 
1.820733e+00 
1.804213e+00 
1.788012e+00 
1.772137e+00 
1.756595e+00 
1.741392e+00 
1.726537e+00 
1.712036e+00 
1.697897e+00 
1.684125e+00 
1.670730e+00 
1.657717e+00 
1.645093e+00 
1.632867e+00 
1.621044e+00 
1.609633e+00 
1.598638e+00 
1.588068e+00 
1.577930e+00 
1.568228e+00 
1.558970e+00 
1.550163e+00 
1.541811e+00 
1.533921e+00 
1.526498e+00 
1.519547e+00 
1.513074e+00 
1.507083e+00 
1.501579e+00 
1.496565e+00 
1.492035e+00 
1.487938e+00 
1.484062e+00 
1.480575e+00 
1.477563e+00 
1.475045e+00 
1.473028e+00 
1.471513e+00 
1.470502e+00 
1.469995e+00 
1.469993e+00 
1.470495e+00 
1.471501e+00 
1.473011e+00 
1.475021e+00 
1.477532e+00 
1.480540e+00 
1.484044e+00 
1.488040e+00 
1.492526e+00 
1.497499e+00 
1.502953e+00 
1.508886e+00 
1.515293e+00 
1.522169e+00 
1.529510e+00 
1.537310e+00 
1.545564e+00 
1.554267e+00 
1.563413e+00 
1.572995e+00 
1.583009e+00 
1.593447e+00 
1.604304e+00 
1.615572e+00 
1.627246e+00 
1.639319e+00 
1.651784e+00 
1.664634e+00 
1.677862e+00 
1.691463e+00 
1.705428e+00 
1.719752e+00 
1.734426e+00 
1.749446e+00 
1.764802e+00 
1.780490e+00 
1.796502e+00 
1.812832e+00 
1.829472e+00 
1.846417e+00 
1.863659e+00 
1.881194e+00 
1.899013e+00 
1.917111e+00 
1.935482e+00 
1.954120e+00 
2.680847e+00 
2.655861e+00 
2.630995e+00 
2.606250e+00 
2.581629e+00 
2.557137e+00 
2.532775e+00 
2.508547e+00 
2.484456e+00 
2.460507e+00 
2.436701e+00 
2.413043e+00 
2.389537e+00 
2.366186e+00 
2.342994e+00 
2.319965e+00 
2.297103e+00 
2.274412e+00 
2.251897e+00 
2.229562e+00 
2.207412e+00 
2.185451e+00 
2.163683e+00 
2.142114e+00 
2.120749e+00 
2.099593e+00 
2.078650e+00 
2.057927e+00 
2.037428e+00 
2.017160e+00 
1.997128e+00 
1.977337e+00 
1.957794e+00 
1.938505e+00 
1.919476e+00 
1.900712e+00 
1.882221e+00 
1.864010e+00 
1.846083e+00 
1.828449e+00 
1.811114e+00 
1.794085e+00 
1.777369e+00 
1.760973e+00 
1.744903e+00 
1.729168e+00 
1.713775e+00 
1.698730e+00 
1.684041e+00 
1.669716e+00 
1.655762e+00 
1.642185e+00 
1.628995e+00 
1.616197e+00 
1.603800e+00 
1.591810e+00 
1.580235e+00 
1.569081e+00 
1.558357e+00 
1.548068e+00 
1.538221e+00 
1.528824e+00 
1.519882e+00 
1.511402e+00 
1.503389e+00 
1.495850e+00 
1.488790e+00 
1.482215e+00 
1.476128e+00 
1.470536e+00 
1.465441e+00 
1.460839e+00 
1.456686e+00 
1.452785e+00 
1.449252e+00 
1.446193e+00 
1.443636e+00 
1.441586e+00 
1.440047e+00 
1.439020e+00 
1.438506e+00 
1.438504e+00 
1.439015e+00 
1.440038e+00 
1.441572e+00 
1.443616e+00 
1.446167e+00 
1.449225e+00 
1.452785e+00 
1.456846e+00 
1.461404e+00 
1.466455e+00 
1.471996e+00 
1.478022e+00 
1.484529e+00 
1.491512e+00 
1.498966e+00 
1.506885e+00 
1.515264e+00 
1.524097e+00 
1.533379e+00 
1.543102e+00 
1.553262e+00 
1.563851e+00 
1.574862e+00 
1.586290e+00 
1.598126e+00 
1.610366e+00 
1.623000e+00 
1.636024e+00 
1.649428e+00 
1.663207e+00 
1.677354e+00 
1.691861e+00 
1.706721e+00 
1.721927e+00 
1.737473e+00 
1.753351e+00 
1.769554e+00 
1.786076e+00 
1.802909e+00 
1.820048e+00 
1.837485e+00 
1.855215e+00 
1.873229e+00 
1.891523e+00 
1.910089e+00 
1.928922e+00 
2.661855e+00 
2.636716e+00 
2.611695e+00 
2.586793e+00 
2.562015e+00 
2.537362e+00 
2.512838e+00 
2.488447e+00 
2.464191e+00 
2.440075e+00 
2.416100e+00 
2.392272e+00 
2.368593e+00 
2.345068e+00 
2.321700e+00 
2.298494e+00 
2.275453e+00 
2.252582e+00 
2.229884e+00 
2.207366e+00 
2.185030e+00 
2.162881e+00 
2.140925e+00 
2.119167e+00 
2.097610e+00 
2.076261e+00 
2.055125e+00 
2.034207e+00 
2.013512e+00 
1.993047e+00 
1.972816e+00 
1.952827e+00 
1.933084e+00 
1.913594e+00 
1.894364e+00 
1.875400e+00 
1.856707e+00 
1.838294e+00 
1.820166e+00 
1.802330e+00 
1.784794e+00 
1.767564e+00 
1.750648e+00 
1.734052e+00 
1.717785e+00 
1.701853e+00 
1.686264e+00 
1.671025e+00 
1.656145e+00 
1.641629e+00 
1.627488e+00 
1.613727e+00 
1.600354e+00 
1.587378e+00 
1.574805e+00 
1.562643e+00 
1.550900e+00 
1.539584e+00 
1.528700e+00 
1.518257e+00 
1.508261e+00 
1.498720e+00 
1.489640e+00 
1.481028e+00 
1.472889e+00 
1.465231e+00 
1.458058e+00 
1.451376e+00 
1.445191e+00 
1.439508e+00 
1.434329e+00 
1.429653e+00 
1.425439e+00 
1.421514e+00 
1.417935e+00 
1.414828e+00 
1.412229e+00 
1.410146e+00 
1.408582e+00 
1.407539e+00 
1.407016e+00 
1.407015e+00 
1.407535e+00 
1.408576e+00 
1.410136e+00 
1.412213e+00 
1.414808e+00 
1.417916e+00 
1.421535e+00 
1.425662e+00 
1.430294e+00 
1.435427e+00 
1.441057e+00 
1.447179e+00 
1.453789e+00 
1.460882e+00 
1.468452e+00 
1.476494e+00 
1.485001e+00 
1.493969e+00 
1.503390e+00 
1.513259e+00 
1.523568e+00 
1.534312e+00 
1.545482e+00 
1.557073e+00 
1.569077e+00 
1.581487e+00 
1.594296e+00 
1.607496e+00 
1.621081e+00 
1.635043e+00 
1.649374e+00 
1.664069e+00 
1.679118e+00 
1.694516e+00 
1.710254e+00 
1.726326e+00 
1.742724e+00 
1.759442e+00 
1.776473e+00 
1.793809e+00 
1.811445e+00 
1.829372e+00 
1.847585e+00 
1.866077e+00 
1.884841e+00 
1.903872e+00 
2.643066e+00 
2.617774e+00 
2.592597e+00 
2.567539e+00 
2.542602e+00 
2.517789e+00 
2.493103e+00 
2.468548e+00 
2.444126e+00 
2.419841e+00 
2.395698e+00 
2.371698e+00 
2.347846e+00 
2.324146e+00 
2.300602e+00 
2.277217e+00 
2.253996e+00 
2.230942e+00 
2.208061e+00 
2.185357e+00 
2.162834e+00 
2.140497e+00 
2.118351e+00 
2.096401e+00 
2.074651e+00 
2.053107e+00 
2.031775e+00 
2.010660e+00 
1.989767e+00 
1.969102e+00 
1.948671e+00 
1.928480e+00 
1.908535e+00 
1.888842e+00 
1.869408e+00 
1.850239e+00 
1.831342e+00 
1.812723e+00 
1.794390e+00 
1.776349e+00 
1.758608e+00 
1.741174e+00 
1.724054e+00 
1.707255e+00 
1.690785e+00 
1.674652e+00 
1.658864e+00 
1.643427e+00 
1.628350e+00 
1.613641e+00 
1.599307e+00 
1.585357e+00 
1.571798e+00 
1.558638e+00 
1.545886e+00 
1.533548e+00 
1.521633e+00 
1.510148e+00 
1.499101e+00 
1.488499e+00 
1.478350e+00 
1.468661e+00 
1.459439e+00 
1.450690e+00 
1.442422e+00 
1.434640e+00 
1.427351e+00 
1.420560e+00 
1.414273e+00 
1.408495e+00 
1.403230e+00 
1.398476e+00 
1.394200e+00 
1.390252e+00 
1.386623e+00 
1.383467e+00 
1.380825e+00 
1.378708e+00 
1.377119e+00 
1.376058e+00 
1.375527e+00 
1.375527e+00 
1.376056e+00 
1.377114e+00 
1.378701e+00 
1.380814e+00 
1.383452e+00 
1.386613e+00 
1.390292e+00 
1.394488e+00 
1.399197e+00 
1.404415e+00 
1.410136e+00 
1.416358e+00 
1.423074e+00 
1.430280e+00 
1.437970e+00 
1.446138e+00 
1.454778e+00 
1.463884e+00 
1.473449e+00 
1.483467e+00 
1.493930e+00 
1.504832e+00 
1.516166e+00 
1.527924e+00 
1.540100e+00 
1.552685e+00 
1.565672e+00 
1.579054e+00 
1.592824e+00 
1.606973e+00 
1.621494e+00 
1.636380e+00 
1.651623e+00 
1.667215e+00 
1.683150e+00 
1.699420e+00 
1.716018e+00 
1.732936e+00 
1.750167e+00 
1.767704e+00 
1.785541e+00 
1.803670e+00 
1.822085e+00 
1.840778e+00 
1.859744e+00 
1.878976e+00 
2.624483e+00 
2.599038e+00 
2.573707e+00 
2.548491e+00 
2.523395e+00 
2.498421e+00 
2.473573e+00 
2.448853e+00 
2.424265e+00 
2.399812e+00 
2.375498e+00 
2.351326e+00 
2.327300e+00 
2.303424e+00 
2.279702e+00 
2.256138e+00 
2.232735e+00 
2.209499e+00 
2.186433e+00 
2.163542e+00 
2.140830e+00 
2.118303e+00 
2.095965e+00 
2.073821e+00 
2.051876e+00 
2.030136e+00 
2.008606e+00 
1.987291e+00 
1.966197e+00 
1.945330e+00 
1.924696e+00 
1.904301e+00 
1.884151e+00 
1.864252e+00 
1.844611e+00 
1.825235e+00 
1.806130e+00 
1.787303e+00 
1.768761e+00 
1.750512e+00 
1.732562e+00 
1.714920e+00 
1.697592e+00 
1.680586e+00 
1.663910e+00 
1.647571e+00 
1.631579e+00 
1.615940e+00 
1.600662e+00 
1.585754e+00 
1.571224e+00 
1.557080e+00 
1.543330e+00 
1.529982e+00 
1.517045e+00 
1.504526e+00 
1.492434e+00 
1.480777e+00 
1.469562e+00 
1.458797e+00 
1.448490e+00 
1.438649e+00 
1.429280e+00 
1.420391e+00 
1.411989e+00 
1.404080e+00 
1.396670e+00 
1.389767e+00 
1.383374e+00 
1.377499e+00 
1.372145e+00 
1.367311e+00 
1.362971e+00 
1.358997e+00 
1.355318e+00 
1.352111e+00 
1.349425e+00 
1.347272e+00 
1.345656e+00 
1.344578e+00 
1.344038e+00 
1.344038e+00 
1.344577e+00 
1.345654e+00 
1.347269e+00 
1.349419e+00 
1.352102e+00 
1.355316e+00 
1.359059e+00 
1.363326e+00 
1.368114e+00 
1.373418e+00 
1.379235e+00 
1.385559e+00 
1.392385e+00 
1.399708e+00 
1.407521e+00 
1.415820e+00 
1.424596e+00 
1.433844e+00 
1.443557e+00 
1.453728e+00 
1.464350e+00 
1.475416e+00 
1.486917e+00 
1.498848e+00 
1.511199e+00 
1.523964e+00 
1.537134e+00 
1.550702e+00 
1.564660e+00 
1.579001e+00 
1.593716e+00 
1.608798e+00 
1.624238e+00 
1.640031e+00 
1.656166e+00 
1.672638e+00 
1.689439e+00 
1.706560e+00 
1.723996e+00 
1.741738e+00 
1.759780e+00 
1.778114e+00 
1.796734e+00 
1.815632e+00 
1.834803e+00 
1.854239e+00 
2.606112e+00 
2.580513e+00 
2.555026e+00 
2.529653e+00 
2.504398e+00 
2.479263e+00 
2.454251e+00 
2.429367e+00 
2.404611e+00 
2.379990e+00 
2.355505e+00 
2.331160e+00 
2.306960e+00 
2.282907e+00 
2.259006e+00 
2.235261e+00 
2.211676e+00 
2.188255e+00 
2.165003e+00 
2.141924e+00 
2.119023e+00 
2.096304e+00 
2.073772e+00 
2.051433e+00 
2.029292e+00 
2.007353e+00 
1.985623e+00 
1.964106e+00 
1.942809e+00 
1.921738e+00 
1.900898e+00 
1.880296e+00 
1.859938e+00 
1.839830e+00 
1.819979e+00 
1.800392e+00 
1.781076e+00 
1.762038e+00 
1.743284e+00 
1.724822e+00 
1.706660e+00 
1.688806e+00 
1.671266e+00 
1.654049e+00 
1.637162e+00 
1.620615e+00 
1.604414e+00 
1.588567e+00 
1.573085e+00 
1.557974e+00 
1.543242e+00 
1.528900e+00 
1.514954e+00 
1.501413e+00 
1.488287e+00 
1.475582e+00 
1.463308e+00 
1.451474e+00 
1.440086e+00 
1.429153e+00 
1.418684e+00 
1.408685e+00 
1.399166e+00 
1.390132e+00 
1.381591e+00 
1.373551e+00 
1.366018e+00 
1.358997e+00 
1.352496e+00 
1.346520e+00 
1.341074e+00 
1.336157e+00 
1.331751e+00 
1.327751e+00 
1.324019e+00 
1.320759e+00 
1.318028e+00 
1.315838e+00 
1.314194e+00 
1.313098e+00 
1.312550e+00 
1.312550e+00 
1.313099e+00 
1.314196e+00 
1.315839e+00 
1.318027e+00 
1.320757e+00 
1.324027e+00 
1.327834e+00 
1.332175e+00 
1.337045e+00 
1.342439e+00 
1.348354e+00 
1.354784e+00 
1.361723e+00 
1.369167e+00 
1.377108e+00 
1.385540e+00 
1.394457e+00 
1.403852e+00 
1.413717e+00 
1.424046e+00 
1.434831e+00 
1.446064e+00 
1.457738e+00 
1.469845e+00 
1.482377e+00 
1.495326e+00 
1.508684e+00 
1.522443e+00 
1.536595e+00 
1.551131e+00 
1.566045e+00 
1.581327e+00 
1.596970e+00 
1.612966e+00 
1.629306e+00 
1.645984e+00 
1.662992e+00 
1.680321e+00 
1.697965e+00 
1.715916e+00 
1.734166e+00 
1.752709e+00 
1.771537e+00 
1.790643e+00 
1.810022e+00 
1.829665e+00 
2.587954e+00 
2.562202e+00 
2.536559e+00 
2.511029e+00 
2.485614e+00 
2.460318e+00 
2.435143e+00 
2.410093e+00 
2.385170e+00 
2.360379e+00 
2.335723e+00 
2.311205e+00 
2.286829e+00 
2.262598e+00 
2.238518e+00 
2.214592e+00 
2.190823e+00 
2.167217e+00 
2.143777e+00 
2.120508e+00 
2.097415e+00 
2.074503e+00 
2.051776e+00 
2.029240e+00 
2.006900e+00 
1.984761e+00 
1.962828e+00 
1.941108e+00 
1.919606e+00 
1.898327e+00 
1.877279e+00 
1.856467e+00 
1.835898e+00 
1.815579e+00 
1.795515e+00 
1.775714e+00 
1.756183e+00 
1.736929e+00 
1.717959e+00 
1.699281e+00 
1.680903e+00 
1.662832e+00 
1.645076e+00 
1.627643e+00 
1.610541e+00 
1.593779e+00 
1.577365e+00 
1.561306e+00 
1.545613e+00 
1.530293e+00 
1.515356e+00 
1.500809e+00 
1.486661e+00 
1.472922e+00 
1.459601e+00 
1.446705e+00 
1.434243e+00 
1.422225e+00 
1.410658e+00 
1.399552e+00 
1.388914e+00 
1.378753e+00 
1.369077e+00 
1.359893e+00 
1.351209e+00 
1.343033e+00 
1.335370e+00 
1.328229e+00 
1.321614e+00 
1.315533e+00 
1.309991e+00 
1.304988e+00 
1.300510e+00 
1.296469e+00 
1.292677e+00 
1.289359e+00 
1.286577e+00 
1.284346e+00 
1.282669e+00 
1.281550e+00 
1.280989e+00 
1.280986e+00 
1.281542e+00 
1.282655e+00 
1.284323e+00 
1.286547e+00 
1.289322e+00 
1.292647e+00 
1.296517e+00 
1.300931e+00 
1.305882e+00 
1.311367e+00 
1.317381e+00 
1.323918e+00 
1.330973e+00 
1.338539e+00 
1.346610e+00 
1.355180e+00 
1.364241e+00 
1.373787e+00 
1.383810e+00 
1.394302e+00 
1.405255e+00 
1.416662e+00 
1.428515e+00 
1.440805e+00 
1.453524e+00 
1.466664e+00 
1.480217e+00 
1.494174e+00 
1.508527e+00 
1.523267e+00 
1.538386e+00 
1.553876e+00 
1.569729e+00 
1.585936e+00 
1.602489e+00 
1.619381e+00 
1.636602e+00 
1.654147e+00 
1.672006e+00 
1.690172e+00 
1.708637e+00 
1.727395e+00 
1.746438e+00 
1.765759e+00 
1.785351e+00 
1.805207e+00 
2.570009e+00 
2.544103e+00 
2.518304e+00 
2.492616e+00 
2.467042e+00 
2.441583e+00 
2.416244e+00 
2.391027e+00 
2.365937e+00 
2.340975e+00 
2.316146e+00 
2.291453e+00 
2.266901e+00 
2.242492e+00 
2.218230e+00 
2.194120e+00 
2.170166e+00 
2.146372e+00 
2.122743e+00 
2.099283e+00 
2.075996e+00 
2.052888e+00 
2.029963e+00 
2.007227e+00 
1.984685e+00 
1.962342e+00 
1.940204e+00 
1.918276e+00 
1.896564e+00 
1.875075e+00 
1.853814e+00 
1.832788e+00 
1.812003e+00 
1.791466e+00 
1.771183e+00 
1.751163e+00 
1.731411e+00 
1.711936e+00 
1.692744e+00 
1.673843e+00 
1.655241e+00 
1.636946e+00 
1.618966e+00 
1.601309e+00 
1.583984e+00 
1.566999e+00 
1.550363e+00 
1.534084e+00 
1.518171e+00 
1.502633e+00 
1.487479e+00 
1.472718e+00 
1.458359e+00 
1.444411e+00 
1.430884e+00 
1.417786e+00 
1.405126e+00 
1.392914e+00 
1.381159e+00 
1.369868e+00 
1.359052e+00 
1.348718e+00 
1.338875e+00 
1.329531e+00 
1.320694e+00 
1.312372e+00 
1.304571e+00 
1.297300e+00 
1.290564e+00 
1.284371e+00 
1.278724e+00 
1.273625e+00 
1.269061e+00 
1.264918e+00 
1.261041e+00 
1.257647e+00 
1.254797e+00 
1.252506e+00 
1.250780e+00 
1.249622e+00 
1.249031e+00 
1.249010e+00 
1.249556e+00 
1.250671e+00 
1.252351e+00 
1.254597e+00 
1.257405e+00 
1.260773e+00 
1.264697e+00 
1.269174e+00 
1.274199e+00 
1.279767e+00 
1.285874e+00 
1.292514e+00 
1.299680e+00 
1.307367e+00 
1.315567e+00 
1.324275e+00 
1.333481e+00 
1.343180e+00 
1.353364e+00 
1.364023e+00 
1.375151e+00 
1.386738e+00 
1.398777e+00 
1.411259e+00 
1.424175e+00 
1.437517e+00 
1.451276e+00 
1.465443e+00 
1.480010e+00 
1.494967e+00 
1.510306e+00 
1.526018e+00 
1.542095e+00 
1.558529e+00 
1.575310e+00 
1.592431e+00 
1.609883e+00 
1.627658e+00 
1.645749e+00 
1.664147e+00 
1.682844e+00 
1.701833e+00 
1.721107e+00 
1.740658e+00 
1.760479e+00 
1.780564e+00 
2.552235e+00 
2.526173e+00 
2.500217e+00 
2.474368e+00 
2.448631e+00 
2.423008e+00 
2.397502e+00 
2.372116e+00 
2.346853e+00 
2.321718e+00 
2.296713e+00 
2.271841e+00 
2.247108e+00 
2.222515e+00 
2.198068e+00 
2.173770e+00 
2.149625e+00 
2.125638e+00 
2.101814e+00 
2.078155e+00 
2.054669e+00 
2.031358e+00 
2.008228e+00 
1.985285e+00 
1.962533e+00 
1.939978e+00 
1.917625e+00 
1.895481e+00 
1.873550e+00 
1.851840e+00 
1.830357e+00 
1.809106e+00 
1.788094e+00 
1.767329e+00 
1.746816e+00 
1.726564e+00 
1.706579e+00 
1.686869e+00 
1.667441e+00 
1.648303e+00 
1.629464e+00 
1.610931e+00 
1.592712e+00 
1.574817e+00 
1.557253e+00 
1.540029e+00 
1.523154e+00 
1.506638e+00 
1.490489e+00 
1.474716e+00 
1.459329e+00 
1.444337e+00 
1.429749e+00 
1.415576e+00 
1.401826e+00 
1.388509e+00 
1.375634e+00 
1.363212e+00 
1.351250e+00 
1.339760e+00 
1.328749e+00 
1.318226e+00 
1.308201e+00 
1.298683e+00 
1.289679e+00 
1.281197e+00 
1.273246e+00 
1.265833e+00 
1.258965e+00 
1.252648e+00 
1.246886e+00 
1.241674e+00 
1.236992e+00 
1.232668e+00 
1.228675e+00 
1.225181e+00 
1.222239e+00 
1.219867e+00 
1.218070e+00 
1.216851e+00 
1.216211e+00 
1.216151e+00 
1.216670e+00 
1.217768e+00 
1.219445e+00 
1.221697e+00 
1.224523e+00 
1.227921e+00 
1.231885e+00 
1.236414e+00 
1.241501e+00 
1.247143e+00 
1.253333e+00 
1.260067e+00 
1.267337e+00 
1.275138e+00 
1.283462e+00 
1.292302e+00 
1.301650e+00 
1.311499e+00 
1.321840e+00 
1.332666e+00 
1.343967e+00 
1.355735e+00 
1.367961e+00 
1.380637e+00 
1.393752e+00 
1.407300e+00 
1.421269e+00 
1.435651e+00 
1.450437e+00 
1.465619e+00 
1.481186e+00 
1.497129e+00 
1.513441e+00 
1.530111e+00 
1.547132e+00 
1.564495e+00 
1.582190e+00 
1.600210e+00 
1.618547e+00 
1.637191e+00 
1.656136e+00 
1.675373e+00 
1.694895e+00 
1.714694e+00 
1.734763e+00 
1.755094e+00 
2.534450e+00 
2.508225e+00 
2.482103e+00 
2.456087e+00 
2.430179e+00 
2.404383e+00 
2.378701e+00 
2.353138e+00 
2.327695e+00 
2.302376e+00 
2.277185e+00 
2.252126e+00 
2.227201e+00 
2.202415e+00 
2.177771e+00 