# vtk DataFile Version 2.0 
Quadtree Mesh 
ASCII 
DATASET UNSTRUCTURED_GRID 
POINTS 16384 double 
-1.000000e+00 -1.000000e+00 0.000000e+00
-9.842520e-01 -1.000000e+00 0.000000e+00
-9.685039e-01 -1.000000e+00 0.000000e+00
-9.527559e-01 -1.000000e+00 0.000000e+00
-9.370079e-01 -1.000000e+00 0.000000e+00
-9.212598e-01 -1.000000e+00 0.000000e+00
-9.055118e-01 -1.000000e+00 0.000000e+00
-8.897638e-01 -1.000000e+00 0.000000e+00
-8.740157e-01 -1.000000e+00 0.000000e+00
-8.582677e-01 -1.000000e+00 0.000000e+00
-8.425197e-01 -1.000000e+00 0.000000e+00
-8.267717e-01 -1.000000e+00 0.000000e+00
-8.110236e-01 -1.000000e+00 0.000000e+00
-7.952756e-01 -1.000000e+00 0.000000e+00
-7.795276e-01 -1.000000e+00 0.000000e+00
-7.637795e-01 -1.000000e+00 0.000000e+00
-7.480315e-01 -1.000000e+00 0.000000e+00
-7.322835e-01 -1.000000e+00 0.000000e+00
-7.165354e-01 -1.000000e+00 0.000000e+00
-7.007874e-01 -1.000000e+00 0.000000e+00
-6.850394e-01 -1.000000e+00 0.000000e+00
-6.692913e-01 -1.000000e+00 0.000000e+00
-6.535433e-01 -1.000000e+00 0.000000e+00
-6.377953e-01 -1.000000e+00 0.000000e+00
-6.220472e-01 -1.000000e+00 0.000000e+00
-6.062992e-01 -1.000000e+00 0.000000e+00
-5.905512e-01 -1.000000e+00 0.000000e+00
-5.748031e-01 -1.000000e+00 0.000000e+00
-5.590551e-01 -1.000000e+00 0.000000e+00
-5.433071e-01 -1.000000e+00 0.000000e+00
-5.275591e-01 -1.000000e+00 0.000000e+00
-5.118110e-01 -1.000000e+00 0.000000e+00
-4.960630e-01 -1.000000e+00 0.000000e+00
-4.803150e-01 -1.000000e+00 0.000000e+00
-4.645669e-01 -1.000000e+00 0.000000e+00
-4.488189e-01 -1.000000e+00 0.000000e+00
-4.330709e-01 -1.000000e+00 0.000000e+00
-4.173228e-01 -1.000000e+00 0.000000e+00
-4.015748e-01 -1.000000e+00 0.000000e+00
-3.858268e-01 -1.000000e+00 0.000000e+00
-3.700787e-01 -1.000000e+00 0.000000e+00
-3.543307e-01 -1.000000e+00 0.000000e+00
-3.385827e-01 -1.000000e+00 0.000000e+00
-3.228346e-01 -1.000000e+00 0.000000e+00
-3.070866e-01 -1.000000e+00 0.000000e+00
-2.913386e-01 -1.000000e+00 0.000000e+00
-2.755906e-01 -1.000000e+00 0.000000e+00
-2.598425e-01 -1.000000e+00 0.000000e+00
-2.440945e-01 -1.000000e+00 0.000000e+00
-2.283465e-01 -1.000000e+00 0.000000e+00
-2.125984e-01 -1.000000e+00 0.000000e+00
-1.968504e-01 -1.000000e+00 0.000000e+00
-1.811024e-01 -1.000000e+00 0.000000e+00
-1.653543e-01 -1.000000e+00 0.000000e+00
-1.496063e-01 -1.000000e+00 0.000000e+00
-1.338583e-01 -1.000000e+00 0.000000e+00
-1.181102e-01 -1.000000e+00 0.000000e+00
-1.023622e-01 -1.000000e+00 0.000000e+00
-8.661417e-02 -1.000000e+00 0.000000e+00
-7.086614e-02 -1.000000e+00 0.000000e+00
-5.511811e-02 -1.000000e+00 0.000000e+00
-3.937008e-02 -1.000000e+00 0.000000e+00
-2.362205e-02 -1.000000e+00 0.000000e+00
-7.874016e-03 -1.000000e+00 0.000000e+00
7.874016e-03 -1.000000e+00 0.000000e+00
2.362205e-02 -1.000000e+00 0.000000e+00
3.937008e-02 -1.000000e+00 0.000000e+00
5.511811e-02 -1.000000e+00 0.000000e+00
7.086614e-02 -1.000000e+00 0.000000e+00
8.661417e-02 -1.000000e+00 0.000000e+00
1.023622e-01 -1.000000e+00 0.000000e+00
1.181102e-01 -1.000000e+00 0.000000e+00
1.338583e-01 -1.000000e+00 0.000000e+00
1.496063e-01 -1.000000e+00 0.000000e+00
1.653543e-01 -1.000000e+00 0.000000e+00
1.811024e-01 -1.000000e+00 0.000000e+00
1.968504e-01 -1.000000e+00 0.000000e+00
2.125984e-01 -1.000000e+00 0.000000e+00
2.283465e-01 -1.000000e+00 0.000000e+00
2.440945e-01 -1.000000e+00 0.000000e+00
2.598425e-01 -1.000000e+00 0.000000e+00
2.755906e-01 -1.000000e+00 0.000000e+00
2.913386e-01 -1.000000e+00 0.000000e+00
3.070866e-01 -1.000000e+00 0.000000e+00
3.228346e-01 -1.000000e+00 0.000000e+00
3.385827e-01 -1.000000e+00 0.000000e+00
3.543307e-01 -1.000000e+00 0.000000e+00
3.700787e-01 -1.000000e+00 0.000000e+00
3.858268e-01 -1.000000e+00 0.000000e+00
4.015748e-01 -1.000000e+00 0.000000e+00
4.173228e-01 -1.000000e+00 0.000000e+00
4.330709e-01 -1.000000e+00 0.000000e+00
4.488189e-01 -1.000000e+00 0.000000e+00
4.645669e-01 -1.000000e+00 0.000000e+00
4.803150e-01 -1.000000e+00 0.000000e+00
4.960630e-01 -1.000000e+00 0.000000e+00
5.118110e-01 -1.000000e+00 0.000000e+00
5.275591e-01 -1.000000e+00 0.000000e+00
5.433071e-01 -1.000000e+00 0.000000e+00
5.590551e-01 -1.000000e+00 0.000000e+00
5.748031e-01 -1.000000e+00 0.000000e+00
5.905512e-01 -1.000000e+00 0.000000e+00
6.062992e-01 -1.000000e+00 0.000000e+00
6.220472e-01 -1.000000e+00 0.000000e+00
6.377953e-01 -1.000000e+00 0.000000e+00
6.535433e-01 -1.000000e+00 0.000000e+00
6.692913e-01 -1.000000e+00 0.000000e+00
6.850394e-01 -1.000000e+00 0.000000e+00
7.007874e-01 -1.000000e+00 0.000000e+00
7.165354e-01 -1.000000e+00 0.000000e+00
7.322835e-01 -1.000000e+00 0.000000e+00
7.480315e-01 -1.000000e+00 0.000000e+00
7.637795e-01 -1.000000e+00 0.000000e+00
7.795276e-01 -1.000000e+00 0.000000e+00
7.952756e-01 -1.000000e+00 0.000000e+00
8.110236e-01 -1.000000e+00 0.000000e+00
8.267717e-01 -1.000000e+00 0.000000e+00
8.425197e-01 -1.000000e+00 0.000000e+00
8.582677e-01 -1.000000e+00 0.000000e+00
8.740157e-01 -1.000000e+00 0.000000e+00
8.897638e-01 -1.000000e+00 0.000000e+00
9.055118e-01 -1.000000e+00 0.000000e+00
9.212598e-01 -1.000000e+00 0.000000e+00
9.370079e-01 -1.000000e+00 0.000000e+00
9.527559e-01 -1.000000e+00 0.000000e+00
9.685039e-01 -1.000000e+00 0.000000e+00
9.842520e-01 -1.000000e+00 0.000000e+00
1.000000e+00 -1.000000e+00 0.000000e+00
-1.000000e+00 -9.842520e-01 0.000000e+00
-9.842520e-01 -9.842520e-01 0.000000e+00
-9.685039e-01 -9.842520e-01 0.000000e+00
-9.527559e-01 -9.842520e-01 0.000000e+00
-9.370079e-01 -9.842520e-01 0.000000e+00
-9.212598e-01 -9.842520e-01 0.000000e+00
-9.055118e-01 -9.842520e-01 0.000000e+00
-8.897638e-01 -9.842520e-01 0.000000e+00
-8.740157e-01 -9.842520e-01 0.000000e+00
-8.582677e-01 -9.842520e-01 0.000000e+00
-8.425197e-01 -9.842520e-01 0.000000e+00
-8.267717e-01 -9.842520e-01 0.000000e+00
-8.110236e-01 -9.842520e-01 0.000000e+00
-7.952756e-01 -9.842520e-01 0.000000e+00
-7.795276e-01 -9.842520e-01 0.000000e+00
-7.637795e-01 -9.842520e-01 0.000000e+00
-7.480315e-01 -9.842520e-01 0.000000e+00
-7.322835e-01 -9.842520e-01 0.000000e+00
-7.165354e-01 -9.842520e-01 0.000000e+00
-7.007874e-01 -9.842520e-01 0.000000e+00
-6.850394e-01 -9.842520e-01 0.000000e+00
-6.692913e-01 -9.842520e-01 0.000000e+00
-6.535433e-01 -9.842520e-01 0.000000e+00
-6.377953e-01 -9.842520e-01 0.000000e+00
-6.220472e-01 -9.842520e-01 0.000000e+00
-6.062992e-01 -9.842520e-01 0.000000e+00
-5.905512e-01 -9.842520e-01 0.000000e+00
-5.748031e-01 -9.842520e-01 0.000000e+00
-5.590551e-01 -9.842520e-01 0.000000e+00
-5.433071e-01 -9.842520e-01 0.000000e+00
-5.275591e-01 -9.842520e-01 0.000000e+00
-5.118110e-01 -9.842520e-01 0.000000e+00
-4.960630e-01 -9.842520e-01 0.000000e+00
-4.803150e-01 -9.842520e-01 0.000000e+00
-4.645669e-01 -9.842520e-01 0.000000e+00
-4.488189e-01 -9.842520e-01 0.000000e+00
-4.330709e-01 -9.842520e-01 0.000000e+00
-4.173228e-01 -9.842520e-01 0.000000e+00
-4.015748e-01 -9.842520e-01 0.000000e+00
-3.858268e-01 -9.842520e-01 0.000000e+00
-3.700787e-01 -9.842520e-01 0.000000e+00
-3.543307e-01 -9.842520e-01 0.000000e+00
-3.385827e-01 -9.842520e-01 0.000000e+00
-3.228346e-01 -9.842520e-01 0.000000e+00
-3.070866e-01 -9.842520e-01 0.000000e+00
-2.913386e-01 -9.842520e-01 0.000000e+00
-2.755906e-01 -9.842520e-01 0.000000e+00
-2.598425e-01 -9.842520e-01 0.000000e+00
-2.440945e-01 -9.842520e-01 0.000000e+00
-2.283465e-01 -9.842520e-01 0.000000e+00
-2.125984e-01 -9.842520e-01 0.000000e+00
-1.968504e-01 -9.842520e-01 0.000000e+00
-1.811024e-01 -9.842520e-01 0.000000e+00
-1.653543e-01 -9.842520e-01 0.000000e+00
-1.496063e-01 -9.842520e-01 0.000000e+00
-1.338583e-01 -9.842520e-01 0.000000e+00
-1.181102e-01 -9.842520e-01 0.000000e+00
-1.023622e-01 -9.842520e-01 0.000000e+00
-8.661417e-02 -9.842520e-01 0.000000e+00
-7.086614e-02 -9.842520e-01 0.000000e+00
-5.511811e-02 -9.842520e-01 0.000000e+00
-3.937008e-02 -9.842520e-01 0.000000e+00
-2.362205e-02 -9.842520e-01 0.000000e+00
-7.874016e-03 -9.842520e-01 0.000000e+00
7.874016e-03 -9.842520e-01 0.000000e+00
2.362205e-02 -9.842520e-01 0.000000e+00
3.937008e-02 -9.842520e-01 0.000000e+00
5.511811e-02 -9.842520e-01 0.000000e+00
7.086614e-02 -9.842520e-01 0.000000e+00
8.661417e-02 -9.842520e-01 0.000000e+00
1.023622e-01 -9.842520e-01 0.000000e+00
1.181102e-01 -9.842520e-01 0.000000e+00
1.338583e-01 -9.842520e-01 0.000000e+00
1.496063e-01 -9.842520e-01 0.000000e+00
1.653543e-01 -9.842520e-01 0.000000e+00
1.811024e-01 -9.842520e-01 0.000000e+00
1.968504e-01 -9.842520e-01 0.000000e+00
2.125984e-01 -9.842520e-01 0.000000e+00
2.283465e-01 -9.842520e-01 0.000000e+00
2.440945e-01 -9.842520e-01 0.000000e+00
2.598425e-01 -9.842520e-01 0.000000e+00
2.755906e-01 -9.842520e-01 0.000000e+00
2.913386e-01 -9.842520e-01 0.000000e+00
3.070866e-01 -9.842520e-01 0.000000e+00
3.228346e-01 -9.842520e-01 0.000000e+00
3.385827e-01 -9.842520e-01 0.000000e+00
3.543307e-01 -9.842520e-01 0.000000e+00
3.700787e-01 -9.842520e-01 0.000000e+00
3.858268e-01 -9.842520e-01 0.000000e+00
4.015748e-01 -9.842520e-01 0.000000e+00
4.173228e-01 -9.842520e-01 0.000000e+00
4.330709e-01 -9.842520e-01 0.000000e+00
4.488189e-01 -9.842520e-01 0.000000e+00
4.645669e-01 -9.842520e-01 0.000000e+00
4.803150e-01 -9.842520e-01 0.000000e+00
4.960630e-01 -9.842520e-01 0.000000e+00
5.118110e-01 -9.842520e-01 0.000000e+00
5.275591e-01 -9.842520e-01 0.000000e+00
5.433071e-01 -9.842520e-01 0.000000e+00
5.590551e-01 -9.842520e-01 0.000000e+00
5.748031e-01 -9.842520e-01 0.000000e+00
5.905512e-01 -9.842520e-01 0.000000e+00
6.062992e-01 -9.842520e-01 0.000000e+00
6.220472e-01 -9.842520e-01 0.000000e+00
6.377953e-01 -9.842520e-01 0.000000e+00
6.535433e-01 -9.842520e-01 0.000000e+00
6.692913e-01 -9.842520e-01 0.000000e+00
6.850394e-01 -9.842520e-01 0.000000e+00
7.007874e-01 -9.842520e-01 0.000000e+00
7.165354e-01 -9.842520e-01 0.000000e+00
7.322835e-01 -9.842520e-01 0.000000e+00
7.480315e-01 -9.842520e-01 0.000000e+00
7.637795e-01 -9.842520e-01 0.000000e+00
7.795276e-01 -9.842520e-01 0.000000e+00
7.952756e-01 -9.842520e-01 0.000000e+00
8.110236e-01 -9.842520e-01 0.000000e+00
[...]
POINT_DATA 16384 
SCALARS concentration double 1 
LOOKUP_TABLE default 
2.731187e+00 
2.706659e+00 
2.682255e+00 
2.657978e+00 
2.633830e+00 
2.609815e+00 
2.585935e+00 
2.562195e+00 
2.538597e+00 
2.515144e+00 
2.491840e+00 
2.468690e+00 
2.445695e+00 
2.422860e+00 
2.400189e+00 
2.377686e+00 
2.355354e+00 
2.333198e+00 
2.311222e+00 
2.289431e+00 
2.267827e+00 
2.246417e+00 
2.225205e+00 
2.204195e+00 
2.183392e+00 
2.162802e+00 
2.142428e+00 
2.122277e+00 
2.102352e+00 
2.082661e+00 
2.063208e+00 
2.043998e+00 
2.025038e+00 
2.006333e+00 
1.987888e+00 
1.969710e+00 
1.951805e+00 
1.934178e+00 
1.916837e+00 
1.899786e+00 
1.883033e+00 
1.866584e+00 
1.850445e+00 
1.834623e+00 
1.819124e+00 
1.803956e+00 
1.789124e+00 
1.774635e+00 
1.760496e+00 
1.746714e+00 
1.733295e+00 
1.720247e+00 
1.707575e+00 
1.695286e+00 
1.683388e+00 
1.671885e+00 
1.660786e+00 
1.650096e+00 
1.639822e+00 
1.629969e+00 
1.620543e+00 
1.611551e+00 
1.602998e+00 
1.594890e+00 
1.587232e+00 
1.580028e+00 
1.573285e+00 
1.567006e+00 
1.561195e+00 
1.555857e+00 
1.550992e+00 
1.546585e+00 
1.542565e+00 
1.538727e+00 
1.535282e+00 
1.532298e+00 
1.529793e+00 
1.527772e+00 
1.526237e+00 
1.525190e+00 
1.524630e+00 
1.524558e+00 
1.524974e+00 
1.525878e+00 
1.527268e+00 
1.529143e+00 
1.531503e+00 
1.534344e+00 
1.537666e+00 
1.541465e+00 
1.545739e+00 
1.550484e+00 
1.555697e+00 
1.561375e+00 
1.567514e+00 
1.574109e+00 
1.581157e+00 
1.588651e+00 
1.596589e+00 
1.604964e+00 
1.613771e+00 
1.623005e+00 
1.632660e+00 
1.642732e+00 
1.653213e+00 
1.664098e+00 
1.675381e+00 
1.687056e+00 
1.699116e+00 
1.711556e+00 
1.724369e+00 
1.737549e+00 
1.751089e+00 
1.764983e+00 
1.779225e+00 
1.793808e+00 
1.808726e+00 
1.823973e+00 
1.839541e+00 
1.855426e+00 
1.871620e+00 
1.888118e+00 
1.904913e+00 
1.922000e+00 
1.939372e+00 
1.957023e+00 
1.974947e+00 
1.993139e+00 
2.711607e+00 
2.686928e+00 
2.662370e+00 
2.637937e+00 
2.613633e+00 
2.589459e+00 
2.565420e+00 
2.541518e+00 
2.517757e+00 
2.494139e+00 
2.470670e+00 
2.447351e+00 
2.424187e+00 
2.401181e+00 
2.378338e+00 
2.355661e+00 
2.333154e+00 
2.310822e+00 
2.288668e+00 
2.266697e+00 
2.244913e+00 
2.223321e+00 
2.201925e+00 
2.180731e+00 
2.159743e+00 
2.138966e+00 
2.118405e+00 
2.098065e+00 
2.077952e+00 
2.058071e+00 
2.038428e+00 
2.019027e+00 
1.999875e+00 
1.980978e+00 
1.962342e+00 
1.943972e+00 
1.925874e+00 
1.908056e+00 
1.890523e+00 
1.873281e+00 
1.856337e+00 
1.839698e+00 
1.823370e+00 
1.807360e+00 
1.791675e+00 
1.776321e+00 
1.761306e+00 
1.746635e+00 
1.732317e+00 
1.718357e+00 
1.704764e+00 
1.691543e+00 
1.678702e+00 
1.666247e+00 
1.654186e+00 
1.642525e+00 
1.631271e+00 
1.620429e+00 
1.610008e+00 
1.600013e+00 
1.590451e+00 
1.581327e+00 
1.572647e+00 
1.564418e+00 
1.556644e+00 
1.549331e+00 
1.542484e+00 
1.536109e+00 
1.530208e+00 
1.524787e+00 
1.519847e+00 
1.515379e+00 
1.511320e+00 
1.507447e+00 
1.503956e+00 
1.500927e+00 
1.498384e+00 
1.496331e+00 
1.494773e+00 
1.493709e+00 
1.493141e+00 
1.493069e+00 
1.493492e+00 
1.494410e+00 
1.495823e+00 
1.497728e+00 
1.500125e+00 
1.503011e+00 
1.506385e+00 
1.510243e+00 
1.514583e+00 
1.519402e+00 
1.524696e+00 
1.530460e+00 
1.536692e+00 
1.543387e+00 
1.550539e+00 
1.558145e+00 
1.566199e+00 
1.574696e+00 
1.583631e+00 
1.592997e+00 
1.602790e+00 
1.613003e+00 
1.623630e+00 
1.634665e+00 
1.646102e+00 
1.657934e+00 
1.670155e+00 
1.682759e+00 
1.695739e+00 
1.709089e+00 
1.722801e+00 
1.736870e+00 
1.751288e+00 
1.766050e+00 
1.781148e+00 
1.796577e+00 
1.812329e+00 
1.828398e+00 
1.844778e+00 
1.861463e+00 
1.878445e+00 
1.895719e+00 
1.913279e+00 
1.931119e+00 
1.949232e+00 
1.967613e+00 
2.692220e+00 
2.667388e+00 
2.642676e+00 
2.618088e+00 
2.593626e+00 
2.569294e+00 
2.545094e+00 
2.521030e+00 
2.497104e+00 
2.473322e+00 
2.449685e+00 
2.426197e+00 
2.402863e+00 
2.379686e+00 
2.356669e+00 
2.333817e+00 
2.311133e+00 
2.288623e+00 
2.266289e+00 
2.244137e+00 
2.222171e+00 
2.200396e+00 
2.178815e+00 
2.157435e+00 
2.136260e+00 
2.115294e+00 
2.094544e+00 
2.074014e+00 
2.053709e+00 
2.033636e+00 
2.013799e+00 
1.994205e+00 
1.974859e+00 
1.955768e+00 
1.936936e+00 
1.918371e+00 
1.900079e+00 
1.882065e+00 
1.864337e+00 
1.846900e+00 
1.829763e+00 
1.812930e+00 
1.796410e+00 
1.780208e+00 
1.764333e+00 
1.748790e+00 
1.733587e+00 
1.718731e+00 
1.704229e+00 
1.690088e+00 
1.676315e+00 
1.662918e+00 
1.649904e+00 
1.637279e+00 
1.625051e+00 
1.613227e+00 
1.601813e+00 
1.590817e+00 
1.580245e+00 
1.570104e+00 
1.560401e+00 
1.551141e+00 
1.542331e+00 
1.533977e+00 
1.526084e+00 
1.518659e+00 
1.511706e+00 
1.505230e+00 
1.499237e+00 
1.493730e+00 
1.488713e+00 
1.484177e+00 
1.480066e+00 
1.476170e+00 
1.472634e+00 
1.469560e+00 
1.466977e+00 
1.464892e+00 
1.463310e+00 
1.462229e+00 
1.461653e+00 
1.461580e+00 
1.462010e+00 
1.462943e+00 
1.464379e+00 
1.466315e+00 
1.468751e+00 
1.471684e+00 
1.475111e+00 
1.479031e+00 
1.483439e+00 
1.488333e+00 
1.493709e+00 
1.499563e+00 
1.505891e+00 
1.512688e+00 
1.519949e+00 
1.527669e+00 
1.535843e+00 
1.544466e+00 
1.553531e+00 
1.563034e+00 
1.572967e+00 
1.583325e+00 
1.594102e+00 
1.605291e+00 
1.616886e+00 
1.628879e+00 
1.641265e+00 
1.654037e+00 
1.667188e+00 
1.680711e+00 
1.694600e+00 
1.708847e+00 
1.723446e+00 
1.738391e+00 
1.753673e+00 
1.769287e+00 
1.785226e+00 
1.801484e+00 
1.818053e+00 
1.834927e+00 
1.852100e+00 
1.869565e+00 
1.887317e+00 
1.905348e+00 
1.923653e+00 
1.942226e+00 
2.673029e+00 
2.648044e+00 
2.623178e+00 
2.598434e+00 
2.573814e+00 
2.549322e+00 
2.524961e+00 
2.500734e+00 
2.476644e+00 
2.452695e+00 
2.428890e+00 
2.405233e+00 
2.381727e+00 
2.358377e+00 
2.335185e+00 
2.312157e+00 
2.289296e+00 
2.266606e+00 
2.244092e+00 
2.221757e+00 
2.199607e+00 
2.177647e+00 
2.155880e+00 
2.134311e+00 
2.112947e+00 
2.091791e+00 
2.070849e+00 
2.050126e+00 
2.029628e+00 
2.009360e+00 
1.989328e+00 
1.969537e+00 
1.949994e+00 
1.930705e+00 
1.911676e+00 
1.892913e+00 
1.874422e+00 
1.856210e+00 
1.838284e+00 
1.820649e+00 
1.803314e+00 
1.786284e+00 
1.769568e+00 
1.753171e+00 
1.737101e+00 
1.721365e+00 
1.705971e+00 
1.690925e+00 
1.676235e+00 
1.661909e+00 
1.647953e+00 
1.634376e+00 
1.621184e+00 
1.608385e+00 
1.595986e+00 
1.583994e+00 
1.572417e+00 
1.561262e+00 
1.550535e+00 
1.540244e+00 
1.530396e+00 
1.520996e+00 
1.512052e+00 
1.503569e+00 
1.495554e+00 
1.488013e+00 
1.480950e+00 
1.474372e+00 
1.468283e+00 
1.462688e+00 
1.457590e+00 
1.452982e+00 
1.448815e+00 
1.444898e+00 
1.441317e+00 
1.438196e+00 
1.435573e+00 
1.433455e+00 
1.431847e+00 
1.430750e+00 
1.430164e+00 
1.430091e+00 
1.430529e+00 
1.431478e+00 
1.432937e+00 
1.434906e+00 
1.437381e+00 
1.440362e+00 
1.443845e+00 
1.447827e+00 
1.452306e+00 
1.457278e+00 
1.462740e+00 
1.468686e+00 
1.475112e+00 
1.482014e+00 
1.489387e+00 
1.497225e+00 
1.505522e+00 
1.514274e+00 
1.523474e+00 
1.533117e+00 
1.543195e+00 
1.553702e+00 
1.564633e+00 
1.575980e+00 
1.587736e+00 
1.599895e+00 
1.612450e+00 
1.625394e+00 
1.638720e+00 
1.652421e+00 
1.666489e+00 
1.680919e+00 
1.695703e+00 
1.710833e+00 
1.726304e+00 
1.742107e+00 
1.758237e+00 
1.774686e+00 
1.791448e+00 
1.808516e+00 
1.825883e+00 
1.843542e+00 
1.861489e+00 
1.879715e+00 
1.898214e+00 
1.916982e+00 
2.654036e+00 
2.628899e+00 
2.603878e+00 
2.578977e+00 
2.554199e+00 
2.529548e+00 
2.505025e+00 
2.480634e+00 
2.456379e+00 
2.432263e+00 
2.408289e+00 
2.384462e+00 
2.360784e+00 
2.337259e+00 
2.313892e+00 
2.290687e+00 
2.267647e+00 
2.244776e+00 
2.222079e+00 
2.199561e+00 
2.177226e+00 
2.155078e+00 
2.133123e+00 
2.111364e+00 
2.089808e+00 
2.068460e+00 
2.047324e+00 
2.026406e+00 
2.005712e+00 
1.985247e+00 
1.965017e+00 
1.945028e+00 
1.925285e+00 
1.905796e+00 
1.886566e+00 
1.867601e+00 
1.848909e+00 
1.830496e+00 
1.812367e+00 
1.794532e+00 
1.776995e+00 
1.759765e+00 
1.742848e+00 
1.726252e+00 
1.709984e+00 
1.694051e+00 
1.678461e+00 
1.663222e+00 
1.648340e+00 
1.633824e+00 
1.619681e+00 
1.605919e+00 
1.592545e+00 
1.579567e+00 
1.566993e+00 
1.554829e+00 
1.543085e+00 
1.531766e+00 
1.520880e+00 
1.510435e+00 
1.500437e+00 
1.490894e+00 
1.481812e+00 
1.473197e+00 
1.465056e+00 
1.457395e+00 
1.450219e+00 
1.443535e+00 
1.437347e+00 
1.431661e+00 
1.426479e+00 
1.421797e+00 
1.417571e+00 
1.413633e+00 
1.410006e+00 
1.406837e+00 
1.404172e+00 
1.402020e+00 
1.400386e+00 
1.399271e+00 
1.398676e+00 
1.398602e+00 
1.399048e+00 
1.400013e+00 
1.401498e+00 
1.403499e+00 
1.406016e+00 
1.409045e+00 
1.412586e+00 
1.416634e+00 
1.421186e+00 
1.426238e+00 
1.431787e+00 
1.437828e+00 
1.444356e+00 
1.451367e+00 
1.458854e+00 
1.466813e+00 
1.475238e+00 
1.484123e+00 
1.493462e+00 
1.503248e+00 
1.513475e+00 
1.524136e+00 
1.535224e+00 
1.546733e+00 
1.558655e+00 
1.570984e+00 
1.583712e+00 
1.596832e+00 
1.610337e+00 
1.624220e+00 
1.638473e+00 
1.653089e+00 
1.668061e+00 
1.683382e+00 
1.699045e+00 
1.715041e+00 
1.731366e+00 
1.748010e+00 
1.764968e+00 
1.782233e+00 
1.799797e+00 
1.817655e+00 
1.835799e+00 
1.854223e+00 
1.872921e+00 
1.891885e+00 
2.635247e+00 
2.609957e+00 
2.584781e+00 
2.559723e+00 
2.534787e+00 
2.509975e+00 
2.485289e+00 
2.460735e+00 
2.436314e+00 
2.412030e+00 
2.387887e+00 
2.363888e+00 
2.340037e+00 
2.316338e+00 
2.292794e+00 
2.269410e+00 
2.246189e+00 
2.223137e+00 
2.200257e+00 
2.177553e+00 
2.155031e+00 
2.132694e+00 
2.110549e+00 
2.088599e+00 
2.066850e+00 
2.045307e+00 
2.023975e+00 
2.002860e+00 
1.981968e+00 
1.961303e+00 
1.940873e+00 
1.920682e+00 
1.900737e+00 
1.881045e+00 
1.861611e+00 
1.842442e+00 
1.823545e+00 
1.804926e+00 
1.786593e+00 
1.768552e+00 
1.750811e+00 
1.733376e+00 
1.716256e+00 
1.699457e+00 
1.682986e+00 
1.666853e+00 
1.651063e+00 
1.635626e+00 
1.620548e+00 
1.605837e+00 
1.591503e+00 
1.577551e+00 
1.563991e+00 
1.550830e+00 
1.538075e+00 
1.525736e+00 
1.513819e+00 
1.502332e+00 
1.491283e+00 
1.480679e+00 
1.470528e+00 
1.460837e+00 
1.451612e+00 
1.442861e+00 
1.434590e+00 
1.426805e+00 
1.419513e+00 
1.412720e+00 
1.406430e+00 
1.400649e+00 
1.395381e+00 
1.390622e+00 
1.386335e+00 
1.382376e+00 
1.378701e+00 
1.375483e+00 
1.372774e+00 
1.370586e+00 
1.368926e+00 
1.367793e+00 
1.367189e+00 
1.367114e+00 
1.367568e+00 
1.368550e+00 
1.370060e+00 
1.372095e+00 
1.374654e+00 
1.377735e+00 
1.381335e+00 
1.385450e+00 
1.390077e+00 
1.395213e+00 
1.400852e+00 
1.406991e+00 
1.413624e+00 
1.420747e+00 
1.428353e+00 
1.436437e+00 
1.444993e+00 
1.454015e+00 
1.463496e+00 
1.473430e+00 
1.483809e+00 
1.494628e+00 
1.505879e+00 
1.517554e+00 
1.529646e+00 
1.542149e+00 
1.555054e+00 
1.568355e+00 
1.582044e+00 
1.596112e+00 
1.610554e+00 
1.625361e+00 
1.640526e+00 
1.656041e+00 
1.671899e+00 
1.688094e+00 
1.704616e+00 
1.721460e+00 
1.738618e+00 
1.756083e+00 
1.773849e+00 
1.791907e+00 
1.810252e+00 
1.828878e+00 
1.847776e+00 
1.866942e+00 
2.616665e+00 
2.591221e+00 
2.565890e+00 
2.540675e+00 
2.515580e+00 
2.490607e+00 
2.465759e+00 
2.441040e+00 
2.416453e+00 
2.392001e+00 
2.367687e+00 
2.343516e+00 
2.319491e+00 
2.295616e+00 
2.271895e+00 
2.248331e+00 
2.224929e+00 
2.201694e+00 
2.178628e+00 
2.155738e+00 
2.133027e+00 
2.110501e+00 
2.088164e+00 
2.066020e+00 
2.044076e+00 
2.022337e+00 
2.000807e+00 
1.979493e+00 
1.958400e+00 
1.937533e+00 
1.916899e+00 
1.896504e+00 
1.876355e+00 
1.856456e+00 
1.836815e+00 
1.817439e+00 
1.798334e+00 
1.779507e+00 
1.760966e+00 
1.742716e+00 
1.724766e+00 
1.707124e+00 
1.689795e+00 
1.672789e+00 
1.656112e+00 
1.639773e+00 
1.623780e+00 
1.608140e+00 
1.592862e+00 
1.577953e+00 
1.563421e+00 
1.549276e+00 
1.535525e+00 
1.522175e+00 
1.509237e+00 
1.496716e+00 
1.484622e+00 
1.472963e+00 
1.461746e+00 
1.450979e+00 
1.440670e+00 
1.430826e+00 
1.421455e+00 
1.412563e+00 
1.404158e+00 
1.396246e+00 
1.388834e+00 
1.381928e+00 
1.375532e+00 
1.369654e+00 
1.364296e+00 
1.359458e+00 
1.355109e+00 
1.351128e+00 
1.347403e+00 
1.344133e+00 
1.341379e+00 
1.339155e+00 
1.337467e+00 
1.336315e+00 
1.335701e+00 
1.335626e+00 
1.336088e+00 
1.337088e+00 
1.338624e+00 
1.340695e+00 
1.343298e+00 
1.346432e+00 
1.350092e+00 
1.354277e+00 
1.358982e+00 
1.364203e+00 
1.369936e+00 
1.376176e+00 
1.382918e+00 
1.390156e+00 
1.397884e+00 
1.406097e+00 
1.414788e+00 
1.423951e+00 
1.433579e+00 
1.443665e+00 
1.454201e+00 
1.465182e+00 
1.476599e+00 
1.488445e+00 
1.500712e+00 
1.513394e+00 
1.526481e+00 
1.539967e+00 
1.553843e+00 
1.568102e+00 
1.582737e+00 
1.597739e+00 
1.613101e+00 
1.628814e+00 
1.644873e+00 
1.661268e+00 
1.677993e+00 
1.695040e+00 
1.712402e+00 
1.730071e+00 
1.748041e+00 
1.766304e+00 
1.784854e+00 
1.803684e+00 
1.822786e+00 
1.842156e+00 
2.598293e+00 
2.572696e+00 
2.547209e+00 
2.521838e+00 
2.496583e+00 
2.471449e+00 
2.446438e+00 
2.421554e+00 
2.396800e+00 
2.372179e+00 
2.347694e+00 
2.323351e+00 
2.299151e+00 
2.275099e+00 
2.251199e+00 
2.227455e+00 
2.203871e+00 
2.180451e+00 
2.157199e+00 
2.134121e+00 
2.111220e+00 
2.088502e+00 
2.065971e+00 
2.043633e+00 
2.021492e+00 
1.999554e+00 
1.977824e+00 
1.956308e+00 
1.935012e+00 
1.913941e+00 
1.893101e+00 
1.872500e+00 
1.852142e+00 
1.832034e+00 
1.812184e+00 
1.792597e+00 
1.773281e+00 
1.754242e+00 
1.735488e+00 
1.717026e+00 
1.698864e+00 
1.681009e+00 
1.663469e+00 
1.646251e+00 
1.629364e+00 
1.612815e+00 
1.596613e+00 
1.580766e+00 
1.565282e+00 
1.550170e+00 
1.535437e+00 
1.521093e+00 
1.507145e+00 
1.493603e+00 
1.480474e+00 
1.467767e+00 
1.455491e+00 
1.443654e+00 
1.432264e+00 
1.421328e+00 
1.410856e+00 
1.400855e+00 
1.391332e+00 
1.382295e+00 
1.373751e+00 
1.365708e+00 
1.358171e+00 
1.351147e+00 
1.344643e+00 
1.338663e+00 
1.333213e+00 
1.328292e+00 
1.323877e+00 
1.319865e+00 
1.316085e+00 
1.312760e+00 
1.309957e+00 
1.307694e+00 
1.305974e+00 
1.304801e+00 
1.304175e+00 
1.304096e+00 
1.304565e+00 
1.305580e+00 
1.307141e+00 
1.309246e+00 
1.311893e+00 
1.315079e+00 
1.318801e+00 
1.323056e+00 
1.327839e+00 
1.333148e+00 
1.338976e+00 
1.345319e+00 
1.352171e+00 
1.359527e+00 
1.367381e+00 
1.375726e+00 
1.384556e+00 
1.393864e+00 
1.403642e+00 
1.413885e+00 
1.424584e+00 
1.435732e+00 
1.447321e+00 
1.459343e+00 
1.471791e+00 
1.484657e+00 
1.497932e+00 
1.511609e+00 
1.525680e+00 
1.540136e+00 
1.554970e+00 
1.570173e+00 
1.585738e+00 
1.601657e+00 
1.617921e+00 
1.634524e+00 
1.651457e+00 
1.668713e+00 
1.686284e+00 
1.704163e+00 
1.722343e+00 
1.740816e+00 
1.759576e+00 
1.778615e+00 
1.797927e+00 
1.817504e+00 
2.580134e+00 
2.554383e+00 
2.528741e+00 
2.503211e+00 
2.477797e+00 
2.452501e+00 
2.427327e+00 
2.402277e+00 
2.377356e+00 
2.352565e+00 
2.327909e+00 
2.303392e+00 
2.279016e+00 
2.254787e+00 
2.230707e+00 
2.206781e+00 
2.183013e+00 
2.159407e+00 
2.135968e+00 
2.112699e+00 
2.089607e+00 
2.066695e+00 
2.043969e+00 
2.021433e+00 
1.999092e+00 
1.976953e+00 
1.955021e+00 
1.933300e+00 
1.911798e+00 
1.890519e+00 
1.869471e+00 
1.848659e+00 
1.828089e+00 
1.807768e+00 
1.787704e+00 
1.767902e+00 
1.748370e+00 
1.729114e+00 
1.710143e+00 
1.691464e+00 
1.673084e+00 
1.655011e+00 
1.637253e+00 
1.619817e+00 
1.602713e+00 
1.585948e+00 
1.569531e+00 
1.553469e+00 
1.537773e+00 
1.522449e+00 
1.507508e+00 
1.492957e+00 
1.478805e+00 
1.465062e+00 
1.451735e+00 
1.438834e+00 
1.426367e+00 
1.414344e+00 
1.402772e+00 
1.391660e+00 
1.381017e+00 
1.370850e+00 
1.361167e+00 
1.351977e+00 
1.343287e+00 
1.335105e+00 
1.327436e+00 
1.320289e+00 
1.313668e+00 
1.307582e+00 
1.302033e+00 
1.297022e+00 
1.292531e+00 
1.288445e+00 
1.284592e+00 
1.281199e+00 
1.278335e+00 
1.276019e+00 
1.274256e+00 
1.273049e+00 
1.272398e+00 
1.272305e+00 
1.272770e+00 
1.273790e+00 
1.275366e+00 
1.277496e+00 
1.280177e+00 
1.283408e+00 
1.287184e+00 
1.291502e+00 
1.296359e+00 
1.301750e+00 
1.307669e+00 
1.314112e+00 
1.321074e+00 
1.328547e+00 
1.336526e+00 
1.345005e+00 
1.353975e+00 
1.363431e+00 
1.373365e+00 
1.383770e+00 
1.394637e+00 
1.405958e+00 
1.417727e+00 
1.429934e+00 
1.442571e+00 
1.455630e+00 
1.469104e+00 
1.482982e+00 
1.497258e+00 
1.511923e+00 
1.526968e+00 
1.542384e+00 
1.558165e+00 
1.574301e+00 
1.590785e+00 
1.607608e+00 
1.624762e+00 
1.642240e+00 
1.660034e+00 
1.678136e+00 
1.696539e+00 
1.715235e+00 
1.734217e+00 
1.753478e+00 
1.773010e+00 
1.792808e+00 
2.562174e+00 
2.536268e+00 
2.510470e+00 
2.484782e+00 
2.459207e+00 
2.433748e+00 
2.408409e+00 
2.383192e+00 
2.358100e+00 
2.333138e+00 
2.308309e+00 
2.283615e+00 
2.259062e+00 
2.234652e+00 
2.210389e+00 
2.186279e+00 
2.162323e+00 
2.138528e+00 
2.114897e+00 
2.091435e+00 
2.068147e+00 
2.045037e+00 
2.022110e+00 
1.999372e+00 
1.976827e+00 
1.954482e+00 
1.932341e+00 
1.910410e+00 
1.888695e+00 
1.867202e+00 
1.845937e+00 
1.824907e+00 
1.804118e+00 
1.783576e+00 
1.763289e+00 
1.743263e+00 
1.723506e+00 
1.704024e+00 
1.684826e+00 
1.665919e+00 
1.647310e+00 
1.629008e+00 
1.611021e+00 
1.593356e+00 
1.576023e+00 
1.559029e+00 
1.542384e+00 
1.526095e+00 
1.510172e+00 
1.494624e+00 
1.479460e+00 
1.464689e+00 
1.450319e+00 
1.436360e+00 
1.422821e+00 
1.409712e+00 
1.397040e+00 
1.384816e+00 
1.373049e+00 
1.361746e+00 
1.350917e+00 
1.340571e+00 
1.330716e+00 
1.321360e+00 
1.312512e+00 
1.304178e+00 
1.296366e+00 
1.289084e+00 
1.282338e+00 
1.276134e+00 
1.270476e+00 
1.265362e+00 
1.260767e+00 
1.256534e+00 
1.252576e+00 
1.249091e+00 
1.246144e+00 
1.243754e+00 
1.241926e+00 
1.240665e+00 
1.239971e+00 
1.239844e+00 
1.240285e+00 
1.241293e+00 
1.242868e+00 
1.245007e+00 
1.247708e+00 
1.250970e+00 
1.254787e+00 
1.259158e+00 
1.264077e+00 
1.269541e+00 
1.275543e+00 
1.282079e+00 
1.289143e+00 
1.296729e+00 
1.304829e+00 
1.313438e+00 
1.322547e+00 
1.332150e+00 
1.342239e+00 
1.352806e+00 
1.363843e+00 
1.375342e+00 
1.387294e+00 
1.399690e+00 
1.412523e+00 
1.425784e+00 
1.439463e+00 
1.453553e+00 
1.468044e+00 
1.482927e+00 
1.498195e+00 
1.513838e+00 
1.529847e+00 
1.546215e+00 
1.562933e+00 
1.579991e+00 
1.597383e+00 
1.615100e+00 
1.633133e+00 
1.651475e+00 
1.670119e+00 
1.689056e+00 
1.708279e+00 
1.727780e+00 
1.747553e+00 
1.767591e+00 
2.544333e+00 
2.518269e+00 
2.492309e+00 
2.466458e+00 
2.440717e+00 
2.415091e+00 
2.389581e+00 
2.364191e+00 
2.338925e+00 
2.313786e+00 
2.288776e+00 
2.263900e+00 
2.239162e+00 
2.214564e+00 
2.190112e+00 
2.165808e+00 
2.141658e+00 
2.117665e+00 
2.093834e+00 
2.070169e+00 
2.046676e+00 
2.023358e+00 
2.000221e+00 
1.977269e+00 
1.954509e+00 
1.931946e+00 
1.909584e+00 
1.887431e+00 
1.865491e+00 
1.843771e+00 
1.822277e+00 
1.801015e+00 
1.779992e+00 
1.759215e+00 
1.738691e+00 
1.718426e+00 
1.698429e+00 
1.678705e+00 
1.659264e+00 
1.640113e+00 
1.621259e+00 
1.602712e+00 
1.584478e+00 
1.566568e+00 
1.548988e+00 
1.531749e+00 
1.514858e+00 
1.498325e+00 
1.482160e+00 
1.466370e+00 
1.450966e+00 
1.435957e+00 
1.421353e+00 
1.407163e+00 
1.393396e+00 
1.380062e+00 
1.367170e+00 
1.354731e+00 
1.342753e+00 
1.331246e+00 
1.320218e+00 
1.309680e+00 
1.299640e+00 
1.290106e+00 
1.281087e+00 
1.272591e+00 
1.264627e+00 
1.257200e+00 
1.250319e+00 
1.243990e+00 
1.238213e+00 
1.232981e+00 
1.228258e+00 
1.223853e+00 
1.219779e+00 
1.216192e+00 
1.213151e+00 
1.210676e+00 
1.208775e+00 
1.207450e+00 
1.206704e+00 
1.206536e+00 
1.206948e+00 
1.207938e+00 
1.209506e+00 
1.211649e+00 
1.214367e+00 
1.217655e+00 
1.221510e+00 
1.225929e+00 
1.230907e+00 
1.236440e+00 
1.242522e+00 
1.249147e+00 
1.256310e+00 
1.264003e+00 
1.272221e+00 
1.280955e+00 
1.290199e+00 
1.299944e+00 
1.310182e+00 
1.320907e+00 
1.332108e+00 
1.343777e+00 
1.355906e+00 
1.368486e+00 
1.381509e+00 
1.394964e+00 
1.408843e+00 
1.423137e+00 
1.437838e+00 
1.452935e+00 
1.468420e+00 
1.484284e+00 
1.500519e+00 
1.517114e+00 
1.534062e+00 
1.551354e+00 
1.568981e+00 
1.586935e+00 
1.605208e+00 
1.623791e+00 
1.642677e+00 
1.661857e+00 
1.681324e+00 
1.701070e+00 
1.721088e+00 
1.741371e+00 
2.526358e+00 
2.500126e+00 
2.473997e+00 
2.447973e+00 
2.422058e+00 
2.396254e+00 
2.370564e+00 
2.344992e+00 
2.319541e+00 
2.294213e+00 
2.269013e+00 
2.243944e+00 
2.219010e+00 
2.194214e+00 
2.169560e+00 