# vtk DataFile Version 2.0 
Quadtree Mesh 
ASCII 
DATASET UNSTRUCTURED_GRID 
POINTS 16384 double 
-1.000000e+00 -1.000000e+00 0.000000e+00
-9.842520e-01 -1.000000e+00 0.000000e+00
-9.685039e-01 -1.000000e+00 0.000000e+00
-9.527559e-01 -1.000000e+00 0.000000e+00
-9.370079e-01 -1.000000e+00 0.000000e+00
-9.212598e-01 -1.000000e+00 0.000000e+00
-9.055118e-01 -1.000000e+00 0.000000e+00
-8.897638e-01 -1.000000e+00 0.000000e+00
-8.740157e-01 -1.000000e+00 0.000000e+00
-8.582677e-01 -1.000000e+00 0.000000e+00
-8.425197e-01 -1.000000e+00 0.000000e+00
-8.267717e-01 -1.000000e+00 0.000000e+00
-8.110236e-01 -1.000000e+00 0.000000e+00
-7.952756e-01 -1.000000e+00 0.000000e+00
-7.795276e-01 -1.000000e+00 0.000000e+00
-7.637795e-01 -1.000000e+00 0.000000e+00
-7.480315e-01 -1.000000e+00 0.000000e+00
-7.322835e-01 -1.000000e+00 0.000000e+00
-7.165354e-01 -1.000000e+00 0.000000e+00
-7.007874e-01 -1.000000e+00 0.000000e+00
-6.850394e-01 -1.000000e+00 0.000000e+00
-6.692913e-01 -1.000000e+00 0.000000e+00
-6.535433e-01 -1.000000e+00 0.000000e+00
-6.377953e-01 -1.000000e+00 0.000000e+00
-6.220472e-01 -1.000000e+00 0.000000e+00
-6.062992e-01 -1.000000e+00 0.000000e+00
-5.905512e-01 -1.000000e+00 0.000000e+00
-5.748031e-01 -1.000000e+00 0.000000e+00
-5.590551e-01 -1.000000e+00 0.000000e+00
-5.433071e-01 -1.000000e+00 0.000000e+00
-5.275591e-01 -1.000000e+00 0.000000e+00
-5.118110e-01 -1.000000e+00 0.000000e+00
-4.960630e-01 -1.000000e+00 0.000000e+00
-4.803150e-01 -1.000000e+00 0.000000e+00
-4.645669e-01 -1.000000e+00 0.000000e+00
-4.488189e-01 -1.000000e+00 0.000000e+00
-4.330709e-01 -1.000000e+00 0.000000e+00
-4.173228e-01 -1.000000e+00 0.000000e+00
-4.015748e-01 -1.000000e+00 0.000000e+00
-3.858268e-01 -1.000000e+00 0.000000e+00
-3.700787e-01 -1.000000e+00 0.000000e+00
-3.543307e-01 -1.000000e+00 0.000000e+00
-3.385827e-01 -1.000000e+00 0.000000e+00
-3.228346e-01 -1.000000e+00 0.000000e+00
-3.070866e-01 -1.000000e+00 0.000000e+00
-2.913386e-01 -1.000000e+00 0.000000e+00
-2.755906e-01 -1.000000e+00 0.000000e+00
-2.598425e-01 -1.000000e+00 0.000000e+00
-2.440945e-01 -1.000000e+00 0.000000e+00
-2.283465e-01 -1.000000e+00 0.000000e+00
-2.125984e-01 -1.000000e+00 0.000000e+00
-1.968504e-01 -1.000000e+00 0.000000e+00
-1.811024e-01 -1.000000e+00 0.000000e+00
-1.653543e-01 -1.000000e+00 0.000000e+00
-1.496063e-01 -1.000000e+00 0.000000e+00
-1.338583e-01 -1.000000e+00 0.000000e+00
-1.181102e-01 -1.000000e+00 0.000000e+00
-1.023622e-01 -1.000000e+00 0.000000e+00
-8.661417e-02 -1.000000e+00 0.000000e+00
-7.086614e-02 -1.000000e+00 0.000000e+00
-5.511811e-02 -1.000000e+00 0.000000e+00
-3.937008e-02 -1.000000e+00 0.000000e+00
-2.362205e-02 -1.000000e+00 0.000000e+00
-7.874016e-03 -1.000000e+00 0.000000e+00
7.874016e-03 -1.000000e+00 0.000000e+00
2.362205e-02 -1.000000e+00 0.000000e+00
3.937008e-02 -1.000000e+00 0.000000e+00
5.511811e-02 -1.000000e+00 0.000000e+00
7.086614e-02 -1.000000e+00 0.000000e+00
8.661417e-02 -1.000000e+00 0.000000e+00
1.023622e-01 -1.000000e+00 0.000000e+00
1.181102e-01 -1.000000e+00 0.000000e+00
1.338583e-01 -1.000000e+00 0.000000e+00
1.496063e-01 -1.000000e+00 0.000000e+00
1.653543e-01 -1.000000e+00 0.000000e+00
1.811024e-01 -1.000000e+00 0.000000e+00
1.968504e-01 -1.000000e+00 0.000000e+00
2.125984e-01 -1.000000e+00 0.000000e+00
2.283465e-01 -1.000000e+00 0.000000e+00
2.440945e-01 -1.000000e+00 0.000000e+00
2.598425e-01 -1.000000e+00 0.000000e+00
2.755906e-01 -1.000000e+00 0.000000e+00
2.913386e-01 -1.000000e+00 0.000000e+00
3.070866e-01 -1.000000e+00 0.000000e+00
3.228346e-01 -1.000000e+00 0.000000e+00
3.385827e-01 -1.000000e+00 0.000000e+00
3.543307e-01 -1.000000e+00 0.000000e+00
3.700787e-01 -1.000000e+00 0.000000e+00
3.858268e-01 -1.000000e+00 0.000000e+00
4.015748e-01 -1.000000e+00 0.000000e+00
4.173228e-01 -1.000000e+00 0.000000e+00
4.330709e-01 -1.000000e+00 0.000000e+00
4.488189e-01 -1.000000e+00 0.000000e+00
4.645669e-01 -1.000000e+00 0.000000e+00
4.803150e-01 -1.000000e+00 0.000000e+00
4.960630e-01 -1.000000e+00 0.000000e+00
5.118110e-01 -1.000000e+00 0.000000e+00
5.275591e-01 -1.000000e+00 0.000000e+00
5.433071e-01 -1.000000e+00 0.000000e+00
5.590551e-01 -1.000000e+00 0.000000e+00
5.748031e-01 -1.000000e+00 0.000000e+00
5.905512e-01 -1.000000e+00 0.000000e+00
6.062992e-01 -1.000000e+00 0.000000e+00
6.220472e-01 -1.000000e+00 0.000000e+00
6.377953e-01 -1.000000e+00 0.000000e+00
6.535433e-01 -1.000000e+00 0.000000e+00
6.692913e-01 -1.000000e+00 0.000000e+00
6.850394e-01 -1.000000e+00 0.000000e+00
7.007874e-01 -1.000000e+00 0.000000e+00
7.165354e-01 -1.000000e+00 0.000000e+00
7.322835e-01 -1.000000e+00 0.000000e+00
7.480315e-01 -1.000000e+00 0.000000e+00
7.637795e-01 -1.000000e+00 0.000000e+00
7.795276e-01 -1.000000e+00 0.000000e+00
7.952756e-01 -1.000000e+00 0.000000e+00
8.110236e-01 -1.000000e+00 0.000000e+00
8.267717e-01 -1.000000e+00 0.000000e+00
8.425197e-01 -1.000000e+00 0.000000e+00
8.582677e-01 -1.000000e+00 0.000000e+00
8.740157e-01 -1.000000e+00 0.000000e+00
8.897638e-01 -1.000000e+00 0.000000e+00
9.055118e-01 -1.000000e+00 0.000000e+00
9.212598e-01 -1.000000e+00 0.000000e+00
9.370079e-01 -1.000000e+00 0.000000e+00
9.527559e-01 -1.000000e+00 0.000000e+00
9.685039e-01 -1.000000e+00 0.000000e+00
9.842520e-01 -1.000000e+00 0.000000e+00
1.000000e+00 -1.000000e+00 0.000000e+00
-1.000000e+00 -9.842520e-01 0.000000e+00
-9.842520e-01 -9.842520e-01 0.000000e+00
-9.685039e-01 -9.842520e-01 0.000000e+00
-9.527559e-01 -9.842520e-01 0.000000e+00
-9.370079e-01 -9.842520e-01 0.000000e+00
-9.212598e-01 -9.842520e-01 0.000000e+00
-9.055118e-01 -9.842520e-01 0.000000e+00
-8.897638e-01 -9.842520e-01 0.000000e+00
-8.740157e-01 -9.842520e-01 0.000000e+00
-8.582677e-01 -9.842520e-01 0.000000e+00
-8.425197e-01 -9.842520e-01 0.000000e+00
-8.267717e-01 -9.842520e-01 0.000000e+00
-8.110236e-01 -9.842520e-01 0.000000e+00
-7.952756e-01 -9.842520e-01 0.000000e+00
-7.795276e-01 -9.842520e-01 0.000000e+00
-7.637795e-01 -9.842520e-01 0.000000e+00
-7.480315e-01 -9.842520e-01 0.000000e+00
-7.322835e-01 -9.842520e-01 0.000000e+00
-7.165354e-01 -9.842520e-01 0.000000e+00
-7.007874e-01 -9.842520e-01 0.000000e+00
-6.850394e-01 -9.842520e-01 0.000000e+00
-6.692913e-01 -9.842520e-01 0.000000e+00
-6.535433e-01 -9.842520e-01 0.000000e+00
-6.377953e-01 -9.842520e-01 0.000000e+00
-6.220472e-01 -9.842520e-01 0.000000e+00
-6.062992e-01 -9.842520e-01 0.000000e+00
-5.905512e-01 -9.842520e-01 0.000000e+00
-5.748031e-01 -9.842520e-01 0.000000e+00
-5.590551e-01 -9.842520e-01 0.000000e+00
-5.433071e-01 -9.842520e-01 0.000000e+00
-5.275591e-01 -9.842520e-01 0.000000e+00
-5.118110e-01 -9.842520e-01 0.000000e+00
-4.960630e-01 -9.842520e-01 0.000000e+00
-4.803150e-01 -9.842520e-01 0.000000e+00
-4.645669e-01 -9.842520e-01 0.000000e+00
-4.488189e-01 -9.842520e-01 0.000000e+00
-4.330709e-01 -9.842520e-01 0.000000e+00
-4.173228e-01 -9.842520e-01 0.000000e+00
-4.015748e-01 -9.842520e-01 0.000000e+00
-3.858268e-01 -9.842520e-01 0.000000e+00
-3.700787e-01 -9.842520e-01 0.000000e+00
-3.543307e-01 -9.842520e-01 0.000000e+00
-3.385827e-01 -9.842520e-01 0.000000e+00
-3.228346e-01 -9.842520e-01 0.000000e+00
-3.070866e-01 -9.842520e-01 0.000000e+00
-2.913386e-01 -9.842520e-01 0.000000e+00
-2.755906e-01 -9.842520e-01 0.000000e+00
-2.598425e-01 -9.842520e-01 0.000000e+00
-2.440945e-01 -9.842520e-01 0.000000e+00
-2.283465e-01 -9.842520e-01 0.000000e+00
-2.125984e-01 -9.842520e-01 0.000000e+00
-1.968504e-01 -9.842520e-01 0.000000e+00
-1.811024e-01 -9.842520e-01 0.000000e+00
-1.653543e-01 -9.842520e-01 0.000000e+00
-1.496063e-01 -9.842520e-01 0.000000e+00
-1.338583e-01 -9.842520e-01 0.000000e+00
-1.181102e-01 -9.842520e-01 0.000000e+00
-1.023622e-01 -9.842520e-01 0.000000e+00
-8.661417e-02 -9.842520e-01 0.000000e+00
-7.086614e-02 -9.842520e-01 0.000000e+00
-5.511811e-02 -9.842520e-01 0.000000e+00
-3.937008e-02 -9.842520e-01 0.000000e+00
-2.362205e-02 -9.842520e-01 0.000000e+00
-7.874016e-03 -9.842520e-01 0.000000e+00
7.874016e-03 -9.842520e-01 0.000000e+00
2.362205e-02 -9.842520e-01 0.000000e+00
3.937008e-02 -9.842520e-01 0.000000e+00
5.511811e-02 -9.842520e-01 0.000000e+00
7.086614e-02 -9.842520e-01 0.000000e+00
8.661417e-02 -9.842520e-01 0.000000e+00
1.023622e-01 -9.842520e-01 0.000000e+00
1.181102e-01 -9.842520e-01 0.000000e+00
1.338583e-01 -9.842520e-01 0.000000e+00
1.496063e-01 -9.842520e-01 0.000000e+00
1.653543e-01 -9.842520e-01 0.000000e+00
1.811024e-01 -9.842520e-01 0.000000e+00
1.968504e-01 -9.842520e-01 0.000000e+00
2.125984e-01 -9.842520e-01 0.000000e+00
2.283465e-01 -9.842520e-01 0.000000e+00
2.440945e-01 -9.842520e-01 0.000000e+00
2.598425e-01 -9.842520e-01 0.000000e+00
2.755906e-01 -9.842520e-01 0.000000e+00
2.913386e-01 -9.842520e-01 0.000000e+00
3.070866e-01 -9.842520e-01 0.000000e+00
3.228346e-01 -9.842520e-01 0.000000e+00
3.385827e-01 -9.842520e-01 0.000000e+00
3.543307e-01 -9.842520e-01 0.000000e+00
3.700787e-01 -9.842520e-01 0.000000e+00
3.858268e-01 -9.842520e-01 0.000000e+00
4.015748e-01 -9.842520e-01 0.000000e+00
4.173228e-01 -9.842520e-01 0.000000e+00
4.330709e-01 -9.842520e-01 0.000000e+00
4.488189e-01 -9.842520e-01 0.000000e+00
4.645669e-01 -9.842520e-01 0.000000e+00
4.803150e-01 -9.842520e-01 0.000000e+00
4.960630e-01 -9.842520e-01 0.000000e+00
5.118110e-01 -9.842520e-01 0.000000e+00
5.275591e-01 -9.842520e-01 0.000000e+00
5.433071e-01 -9.842520e-01 0.000000e+00
5.590551e-01 -9.842520e-01 0.000000e+00
5.748031e-01 -9.842520e-01 0.000000e+00
5.905512e-01 -9.842520e-01 0.000000e+00
6.062992e-01 -9.842520e-01 0.000000e+00
6.220472e-01 -9.842520e-01 0.000000e+00
6.377953e-01 -9.842520e-01 0.000000e+00
6.535433e-01 -9.842520e-01 0.000000e+00
6.692913e-01 -9.842520e-01 0.000000e+00
6.850394e-01 -9.842520e-01 0.000000e+00
7.007874e-01 -9.842520e-01 0.000000e+00
7.165354e-01 -9.842520e-01 0.000000e+00
7.322835e-01 -9.842520e-01 0.000000e+00
7.480315e-01 -9.842520e-01 0.000000e+00
7.637795e-01 -9.842520e-01 0.000000e+00
7.795276e-01 -9.842520e-01 0.000000e+00
7.952756e-01 -9.842520e-01 0.000000e+00
8.110236e-01 -9.842520e-01 0.000000e+00
[...]
POINT_DATA 16384 
SCALARS concentration double 1 
LOOKUP_TABLE default 
2.503830e+00 
2.479275e+00 
2.454840e+00 
2.430529e+00 
2.406345e+00 
2.382291e+00 
2.358369e+00 
2.334583e+00 
2.310937e+00 
2.287433e+00 
2.264074e+00 
2.240865e+00 
2.217809e+00 
2.194909e+00 
2.172169e+00 
2.149594e+00 
2.127187e+00 
2.104952e+00 
2.082893e+00 
2.061016e+00 
2.039324e+00 
2.017822e+00 
1.996514e+00 
1.975406e+00 
1.954502e+00 
1.933807e+00 
1.913327e+00 
1.893066e+00 
1.873031e+00 
1.853226e+00 
1.833658e+00 
1.814331e+00 
1.795252e+00 
1.776427e+00 
1.757861e+00 
1.739561e+00 
1.721533e+00 
1.703782e+00 
1.686317e+00 
1.669142e+00 
1.652264e+00 
1.635691e+00 
1.619428e+00 
1.603482e+00 
1.587859e+00 
1.572567e+00 
1.557613e+00 
1.543002e+00 
1.528741e+00 
1.514838e+00 
1.501300e+00 
1.488131e+00 
1.475341e+00 
1.462934e+00 
1.450918e+00 
1.439299e+00 
1.428084e+00 
1.417279e+00 
1.406890e+00 
1.396923e+00 
1.387384e+00 
1.378280e+00 
1.369615e+00 
1.361396e+00 
1.353626e+00 
1.346312e+00 
1.339455e+00 
1.333059e+00 
1.327120e+00 
1.321631e+00 
1.316572e+00 
1.311901e+00 
1.307548e+00 
1.303414e+00 
1.299395e+00 
1.295418e+00 
1.291563e+00 
1.287945e+00 
1.284660e+00 
1.281771e+00 
1.279312e+00 
1.277301e+00 
1.275749e+00 
1.274658e+00 
1.274032e+00 
1.273871e+00 
1.274174e+00 
1.274941e+00 
1.276170e+00 
1.277861e+00 
1.280010e+00 
1.282617e+00 
1.285678e+00 
1.289190e+00 
1.293152e+00 
1.297560e+00 
1.302410e+00 
1.307699e+00 
1.313424e+00 
1.319579e+00 
1.326162e+00 
1.333168e+00 
1.340593e+00 
1.348432e+00 
1.356680e+00 
1.365333e+00 
1.374386e+00 
1.383834e+00 
1.393672e+00 
1.403894e+00 
1.414497e+00 
1.425473e+00 
1.436819e+00 
1.448529e+00 
1.460597e+00 
1.473019e+00 
1.485788e+00 
1.498900e+00 
1.512350e+00 
1.526131e+00 
1.540239e+00 
1.554668e+00 
1.569414e+00 
1.584471e+00 
1.599833e+00 
1.615496e+00 
1.631454e+00 
1.647703e+00 
2.483709e+00 
2.458980e+00 
2.434371e+00 
2.409884e+00 
2.385522e+00 
2.361288e+00 
2.337185e+00 
2.313216e+00 
2.289386e+00 
2.265696e+00 
2.242151e+00 
2.218754e+00 
2.195509e+00 
2.172420e+00 
2.149490e+00 
2.126723e+00 
2.104125e+00 
2.081698e+00 
2.059447e+00 
2.037377e+00 
2.015493e+00 
1.993798e+00 
1.972298e+00 
1.950998e+00 
1.929903e+00 
1.909017e+00 
1.888347e+00 
1.867897e+00 
1.847673e+00 
1.827680e+00 
1.807925e+00 
1.788413e+00 
1.769149e+00 
1.750141e+00 
1.731393e+00 
1.712912e+00 
1.694705e+00 
1.676778e+00 
1.659136e+00 
1.641787e+00 
1.624737e+00 
1.607992e+00 
1.591560e+00 
1.575446e+00 
1.559659e+00 
1.544203e+00 
1.529087e+00 
1.514317e+00 
1.499900e+00 
1.485842e+00 
1.472151e+00 
1.458833e+00 
1.445895e+00 
1.433344e+00 
1.421186e+00 
1.409429e+00 
1.398078e+00 
1.387141e+00 
1.376624e+00 
1.366533e+00 
1.356873e+00 
1.347653e+00 
1.338876e+00 
1.330549e+00 
1.322677e+00 
1.315265e+00 
1.308317e+00 
1.301835e+00 
1.295819e+00 
1.290263e+00 
1.285150e+00 
1.280444e+00 
1.276080e+00 
1.271959e+00 
1.267973e+00 
1.264034e+00 
1.260193e+00 
1.256571e+00 
1.253275e+00 
1.250373e+00 
1.247902e+00 
1.245883e+00 
1.244327e+00 
1.243239e+00 
1.242620e+00 
1.242472e+00 
1.242795e+00 
1.243587e+00 
1.244848e+00 
1.246576e+00 
1.248769e+00 
1.251425e+00 
1.254542e+00 
1.258116e+00 
1.262144e+00 
1.266624e+00 
1.271552e+00 
1.276925e+00 
1.282738e+00 
1.288987e+00 
1.295668e+00 
1.302778e+00 
1.310310e+00 
1.318261e+00 
1.326626e+00 
1.335399e+00 
1.344576e+00 
1.354152e+00 
1.364121e+00 
1.374478e+00 
1.385218e+00 
1.396335e+00 
1.407824e+00 
1.419679e+00 
1.431894e+00 
1.444465e+00 
1.457386e+00 
1.470651e+00 
1.484254e+00 
1.498190e+00 
1.512454e+00 
1.527040e+00 
1.541943e+00 
1.557157e+00 
1.572677e+00 
1.588497e+00 
1.604612e+00 
1.621018e+00 
2.463572e+00 
2.438671e+00 
2.413889e+00 
2.389228e+00 
2.364691e+00 
2.340281e+00 
2.316001e+00 
2.291854e+00 
2.267845e+00 
2.243976e+00 
2.220251e+00 
2.196673e+00 
2.173247e+00 
2.149976e+00 
2.126865e+00 
2.103917e+00 
2.081136e+00 
2.058528e+00 
2.036096e+00 
2.013844e+00 
1.991779e+00 
1.969903e+00 
1.948223e+00 
1.926743e+00 
1.905468e+00 
1.884403e+00 
1.863554e+00 
1.842927e+00 
1.822525e+00 
1.802356e+00 
1.782425e+00 
1.762738e+00 
1.743301e+00 
1.724119e+00 
1.705198e+00 
1.686546e+00 
1.668168e+00 
1.650070e+00 
1.632259e+00 
1.614742e+00 
1.597525e+00 
1.580614e+00 
1.564016e+00 
1.547739e+00 
1.531788e+00 
1.516171e+00 
1.500894e+00 
1.485965e+00 
1.471390e+00 
1.457177e+00 
1.443331e+00 
1.429861e+00 
1.416774e+00 
1.404075e+00 
1.391773e+00 
1.379873e+00 
1.368383e+00 
1.357309e+00 
1.346659e+00 
1.336438e+00 
1.326653e+00 
1.317311e+00 
1.308417e+00 
1.299977e+00 
1.291998e+00 
1.284483e+00 
1.277439e+00 
1.270867e+00 
1.264769e+00 
1.259140e+00 
1.253966e+00 
1.249215e+00 
1.244825e+00 
1.240702e+00 
1.236729e+00 
1.232817e+00 
1.228982e+00 
1.225352e+00 
1.222039e+00 
1.219117e+00 
1.216628e+00 
1.214596e+00 
1.213030e+00 
1.211938e+00 
1.211323e+00 
1.211184e+00 
1.211522e+00 
1.212337e+00 
1.213626e+00 
1.215389e+00 
1.217624e+00 
1.220328e+00 
1.223498e+00 
1.227133e+00 
1.231228e+00 
1.235781e+00 
1.240787e+00 
1.246244e+00 
1.252147e+00 
1.258491e+00 
1.265273e+00 
1.272488e+00 
1.280131e+00 
1.288198e+00 
1.296682e+00 
1.305580e+00 
1.314885e+00 
1.324593e+00 
1.334698e+00 
1.345194e+00 
1.356077e+00 
1.367339e+00 
1.378977e+00 
1.390983e+00 
1.403352e+00 
1.416079e+00 
1.429158e+00 
1.442582e+00 
1.456347e+00 
1.470446e+00 
1.484874e+00 
1.499625e+00 
1.514694e+00 
1.530074e+00 
1.545761e+00 
1.561748e+00 
1.578031e+00 
1.594603e+00 
2.443456e+00 
2.418391e+00 
2.393444e+00 
2.368617e+00 
2.343913e+00 
2.319336e+00 
2.294888e+00 
2.270574e+00 
2.246396e+00 
2.222359e+00 
2.198465e+00 
2.174718e+00 
2.151123e+00 
2.127683e+00 
2.104402e+00 
2.081285e+00 
2.058335e+00 
2.035557e+00 
2.012956e+00 
1.990536e+00 
1.968301e+00 
1.946257e+00 
1.924408e+00 
1.902759e+00 
1.881315e+00 
1.860082e+00 
1.839065e+00 
1.818269e+00 
1.797700e+00 
1.777363e+00 
1.757264e+00 
1.737408e+00 
1.717803e+00 
1.698453e+00 
1.679365e+00 
1.660544e+00 
1.641998e+00 
1.623733e+00 
1.605754e+00 
1.588069e+00 
1.570684e+00 
1.553606e+00 
1.536841e+00 
1.520397e+00 
1.504280e+00 
1.488498e+00 
1.473056e+00 
1.457963e+00 
1.443226e+00 
1.428851e+00 
1.414845e+00 
1.401217e+00 
1.387972e+00 
1.375119e+00 
1.362664e+00 
1.350615e+00 
1.338978e+00 
1.327760e+00 
1.316969e+00 
1.306611e+00 
1.296693e+00 
1.287222e+00 
1.278204e+00 
1.269645e+00 
1.261551e+00 
1.253928e+00 
1.246780e+00 
1.240113e+00 
1.233926e+00 
1.228218e+00 
1.222975e+00 
1.218169e+00 
1.213740e+00 
1.209596e+00 
1.205621e+00 
1.201726e+00 
1.197894e+00 
1.194253e+00 
1.190920e+00 
1.187976e+00 
1.185466e+00 
1.183416e+00 
1.181839e+00 
1.180742e+00 
1.180127e+00 
1.179996e+00 
1.180349e+00 
1.181186e+00 
1.182505e+00 
1.184303e+00 
1.186581e+00 
1.189334e+00 
1.192561e+00 
1.196258e+00 
1.200422e+00 
1.205050e+00 
1.210138e+00 
1.215682e+00 
1.221678e+00 
1.228121e+00 
1.235007e+00 
1.242332e+00 
1.250089e+00 
1.258274e+00 
1.266882e+00 
1.275908e+00 
1.285345e+00 
1.295189e+00 
1.305434e+00 
1.316073e+00 
1.327102e+00 
1.338515e+00 
1.350305e+00 
1.362466e+00 
1.374993e+00 
1.387880e+00 
1.401121e+00 
1.414709e+00 
1.428640e+00 
1.442906e+00 
1.457503e+00 
1.472424e+00 
1.487663e+00 
1.503215e+00 
1.519074e+00 
1.535234e+00 
1.551690e+00 
1.568436e+00 
2.423453e+00 
2.398235e+00 
2.373134e+00 
2.348153e+00 
2.323295e+00 
2.298564e+00 
2.273961e+00 
2.249492e+00 
2.225158e+00 
2.200965e+00 
2.176915e+00 
2.153012e+00 
2.129260e+00 
2.105663e+00 
2.082225e+00 
2.058950e+00 
2.035843e+00 
2.012907e+00 
1.990147e+00 
1.967567e+00 
1.945173e+00 
1.922969e+00 
1.900959e+00 
1.879149e+00 
1.857544e+00 
1.836148e+00 
1.814968e+00 
1.794008e+00 
1.773274e+00 
1.752772e+00 
1.732507e+00 
1.712485e+00 
1.692712e+00 
1.673193e+00 
1.653936e+00 
1.634946e+00 
1.616229e+00 
1.597792e+00 
1.579642e+00 
1.561784e+00 
1.544227e+00 
1.526975e+00 
1.510037e+00 
1.493420e+00 
1.477130e+00 
1.461174e+00 
1.445561e+00 
1.430296e+00 
1.415387e+00 
1.400842e+00 
1.386668e+00 
1.372873e+00 
1.359463e+00 
1.346447e+00 
1.333831e+00 
1.321624e+00 
1.309832e+00 
1.298463e+00 
1.287523e+00 
1.277021e+00 
1.266963e+00 
1.257356e+00 
1.248207e+00 
1.239522e+00 
1.231308e+00 
1.223570e+00 
1.216315e+00 
1.209545e+00 
1.203265e+00 
1.197471e+00 
1.192152e+00 
1.187281e+00 
1.182802e+00 
1.178624e+00 
1.174636e+00 
1.170752e+00 
1.166929e+00 
1.163278e+00 
1.159926e+00 
1.156958e+00 
1.154426e+00 
1.152358e+00 
1.150768e+00 
1.149665e+00 
1.149051e+00 
1.148928e+00 
1.149296e+00 
1.150155e+00 
1.151504e+00 
1.153339e+00 
1.155661e+00 
1.158465e+00 
1.161749e+00 
1.165511e+00 
1.169747e+00 
1.174452e+00 
1.179624e+00 
1.185259e+00 
1.191351e+00 
1.197896e+00 
1.204890e+00 
1.212327e+00 
1.220203e+00 
1.228511e+00 
1.237247e+00 
1.246406e+00 
1.255980e+00 
1.265965e+00 
1.276355e+00 
1.287143e+00 
1.298324e+00 
1.309891e+00 
1.321839e+00 
1.334162e+00 
1.346852e+00 
1.359904e+00 
1.373312e+00 
1.387070e+00 
1.401171e+00 
1.415610e+00 
1.430380e+00 
1.445475e+00 
1.460890e+00 
1.476617e+00 
1.492653e+00 
1.508990e+00 
1.525623e+00 
1.542546e+00 
2.403690e+00 
2.378332e+00 
2.353090e+00 
2.327968e+00 
2.302968e+00 
2.278094e+00 
2.253349e+00 
2.228735e+00 
2.204258e+00 
2.179919e+00 
2.155724e+00 
2.131674e+00 
2.107775e+00 
2.084030e+00 
2.060443e+00 
2.037018e+00 
2.013760e+00 
1.990672e+00 
1.967759e+00 
1.945025e+00 
1.922475e+00 
1.900114e+00 
1.877947e+00 
1.855977e+00 
1.834211e+00 
1.812654e+00 
1.791310e+00 
1.770185e+00 
1.749285e+00 
1.728615e+00 
1.708181e+00 
1.687988e+00 
1.668042e+00 
1.648350e+00 
1.628918e+00 
1.609752e+00 
1.590858e+00 
1.572243e+00 
1.553913e+00 
1.535876e+00 
1.518137e+00 
1.500705e+00 
1.483586e+00 
1.466787e+00 
1.450315e+00 
1.434178e+00 
1.418383e+00 
1.402938e+00 
1.387850e+00 
1.373127e+00 
1.358777e+00 
1.344806e+00 
1.331223e+00 
1.318036e+00 
1.305253e+00 
1.292880e+00 
1.280926e+00 
1.269398e+00 
1.258303e+00 
1.247650e+00 
1.237445e+00 
1.227696e+00 
1.218410e+00 
1.209593e+00 
1.201253e+00 
1.193395e+00 
1.186026e+00 
1.179149e+00 
1.172769e+00 
1.166883e+00 
1.161482e+00 
1.156538e+00 
1.151998e+00 
1.147779e+00 
1.143769e+00 
1.139883e+00 
1.136067e+00 
1.132403e+00 
1.129025e+00 
1.126028e+00 
1.123467e+00 
1.121374e+00 
1.119764e+00 
1.118647e+00 
1.118027e+00 
1.117905e+00 
1.118281e+00 
1.119156e+00 
1.120527e+00 
1.122393e+00 
1.124751e+00 
1.127601e+00 
1.130938e+00 
1.134759e+00 
1.139062e+00 
1.143842e+00 
1.149096e+00 
1.154818e+00 
1.161006e+00 
1.167653e+00 
1.174755e+00 
1.182308e+00 
1.190305e+00 
1.198740e+00 
1.207610e+00 
1.216906e+00 
1.226624e+00 
1.236758e+00 
1.247301e+00 
1.258247e+00 
1.269590e+00 
1.281323e+00 
1.293439e+00 
1.305934e+00 
1.318799e+00 
1.332029e+00 
1.345617e+00 
1.359556e+00 
1.373841e+00 
1.388465e+00 
1.403421e+00 
1.418703e+00 
1.434305e+00 
1.450221e+00 
1.466444e+00 
1.482970e+00 
1.499791e+00 
1.516902e+00 
2.384299e+00 
2.358810e+00 
2.333438e+00 
2.308183e+00 
2.283050e+00 
2.258042e+00 
2.233161e+00 
2.208412e+00 
2.183797e+00 
2.159319e+00 
2.134984e+00 
2.110793e+00 
2.086750e+00 
2.062861e+00 
2.039128e+00 
2.015555e+00 
1.992147e+00 
1.968908e+00 
1.945842e+00 
1.922953e+00 
1.900247e+00 
1.877727e+00 
1.855399e+00 
1.833267e+00 
1.811336e+00 
1.789613e+00 
1.768100e+00 
1.746805e+00 
1.725733e+00 
1.704888e+00 
1.684278e+00 
1.663907e+00 
1.643782e+00 
1.623909e+00 
1.604294e+00 
1.584944e+00 
1.565864e+00 
1.547062e+00 
1.528545e+00 
1.510319e+00 
1.492391e+00 
1.474769e+00 
1.457459e+00 
1.440470e+00 
1.423808e+00 
1.407480e+00 
1.391496e+00 
1.375862e+00 
1.360585e+00 
1.345675e+00 
1.331139e+00 
1.316984e+00 
1.303220e+00 
1.289853e+00 
1.276891e+00 
1.264344e+00 
1.252218e+00 
1.240521e+00 
1.229262e+00 
1.218448e+00 
1.208087e+00 
1.198186e+00 
1.188753e+00 
1.179795e+00 
1.171319e+00 
1.163332e+00 
1.155839e+00 
1.148847e+00 
1.142358e+00 
1.136371e+00 
1.130878e+00 
1.125852e+00 
1.121243e+00 
1.116970e+00 
1.112924e+00 
1.109011e+00 
1.105163e+00 
1.101463e+00 
1.098042e+00 
1.094997e+00 
1.092388e+00 
1.090249e+00 
1.088599e+00 
1.087448e+00 
1.086801e+00 
1.086659e+00 
1.087024e+00 
1.087895e+00 
1.089270e+00 
1.091149e+00 
1.093528e+00 
1.096407e+00 
1.099782e+00 
1.103650e+00 
1.108008e+00 
1.112852e+00 
1.118177e+00 
1.123981e+00 
1.130257e+00 
1.137002e+00 
1.144210e+00 
1.151875e+00 
1.159993e+00 
1.168558e+00 
1.177563e+00 
1.187002e+00 
1.196870e+00 
1.207160e+00 
1.217866e+00 
1.228980e+00 
1.240497e+00 
1.252409e+00 
1.264710e+00 
1.277393e+00 
1.290451e+00 
1.303877e+00 
1.317665e+00 
1.331807e+00 
1.346297e+00 
1.361128e+00 
1.376293e+00 
1.391785e+00 
1.407599e+00 
1.423727e+00 
1.440163e+00 
1.456901e+00 
1.473935e+00 
1.491258e+00 
2.365380e+00 
2.339767e+00 
2.314268e+00 
2.288885e+00 
2.263623e+00 
2.238484e+00 
2.213470e+00 
2.188586e+00 
2.163835e+00 
2.139219e+00 
2.114743e+00 
2.090410e+00 
2.066223e+00 
2.042187e+00 
2.018305e+00 
1.994582e+00 
1.971021e+00 
1.947626e+00 
1.924402e+00 
1.901353e+00 
1.878485e+00 
1.855800e+00 
1.833305e+00 
1.811003e+00 
1.788901e+00 
1.767003e+00 
1.745314e+00 
1.723840e+00 
1.702587e+00 
1.681559e+00 
1.660763e+00 
1.640205e+00 
1.619891e+00 
1.599827e+00 
1.580019e+00 
1.560474e+00 
1.541199e+00 
1.522200e+00 
1.503484e+00 
1.485058e+00 
1.466929e+00 
1.449105e+00 
1.431593e+00 
1.414401e+00 
1.397536e+00 
1.381005e+00 
1.364818e+00 
1.348981e+00 
1.333503e+00 
1.318391e+00 
1.303654e+00 
1.289301e+00 
1.275338e+00 
1.261776e+00 
1.248621e+00 
1.235882e+00 
1.223568e+00 
1.211686e+00 
1.200246e+00 
1.189254e+00 
1.178720e+00 
1.168650e+00 
1.159054e+00 
1.149938e+00 
1.141310e+00 
1.133178e+00 
1.125547e+00 
1.118424e+00 
1.111812e+00 
1.105712e+00 
1.100114e+00 
1.094993e+00 
1.090302e+00 
1.085962e+00 
1.081852e+00 
1.077855e+00 
1.073930e+00 
1.070160e+00 
1.066665e+00 
1.063543e+00 
1.060858e+00 
1.058646e+00 
1.056929e+00 
1.055717e+00 
1.055017e+00 
1.054831e+00 
1.055161e+00 
1.056005e+00 
1.057364e+00 
1.059235e+00 
1.061618e+00 
1.064509e+00 
1.067907e+00 
1.071807e+00 
1.076207e+00 
1.081103e+00 
1.086491e+00 
1.092366e+00 
1.098723e+00 
1.105559e+00 
1.112867e+00 
1.120641e+00 
1.128877e+00 
1.137569e+00 
1.146709e+00 
1.156293e+00 
1.166312e+00 
1.176762e+00 
1.187635e+00 
1.198924e+00 
1.210622e+00 
1.222722e+00 
1.235217e+00 
1.248100e+00 
1.261364e+00 
1.275002e+00 
1.289005e+00 
1.303368e+00 
1.318082e+00 
1.333141e+00 
1.348538e+00 
1.364264e+00 
1.380315e+00 
1.396681e+00 
1.413357e+00 
1.430336e+00 
1.447612e+00 
1.465176e+00 
2.346983e+00 
2.321245e+00 
2.295618e+00 
2.270107e+00 
2.244713e+00 
2.219440e+00 
2.194290e+00 
2.169268e+00 
2.144375e+00 
2.119617e+00 
2.094995e+00 
2.070513e+00 
2.046176e+00 
2.021987e+00 
1.997949e+00 
1.974067e+00 
1.950344e+00 
1.926785e+00 
1.903395e+00 
1.880176e+00 
1.857135e+00 
1.834275e+00 
1.811602e+00 
1.789120e+00 
1.766835e+00 
1.744751e+00 
1.722873e+00 
1.701208e+00 
1.679761e+00 
1.658537e+00 
1.637542e+00 
1.616783e+00 
1.596265e+00 
1.575996e+00 
1.555980e+00 
1.536225e+00 
1.516738e+00 
1.497525e+00 
1.478594e+00 
1.459951e+00 
1.441604e+00 
1.423561e+00 
1.405828e+00 
1.388414e+00 
1.371327e+00 
1.354573e+00 
1.338163e+00 
1.322102e+00 
1.306401e+00 
1.291066e+00 
1.276108e+00 
1.261533e+00 
1.247351e+00 
1.233570e+00 
1.220200e+00 
1.207248e+00 
1.194723e+00 
1.182634e+00 
1.170990e+00 
1.159800e+00 
1.149071e+00 
1.138813e+00 
1.129033e+00 
1.119740e+00 
1.110942e+00 
1.102647e+00 
1.094861e+00 
1.087592e+00 
1.080843e+00 
1.074615e+00 
1.068899e+00 
1.063672e+00 
1.058887e+00 
1.054461e+00 
1.050257e+00 
1.046138e+00 
1.042111e+00 
1.038246e+00 
1.034654e+00 
1.031434e+00 
1.028652e+00 
1.026349e+00 
1.024547e+00 
1.023260e+00 
1.022494e+00 
1.022252e+00 
1.022536e+00 
1.023345e+00 
1.024679e+00 
1.026537e+00 
1.028916e+00 
1.031815e+00 
1.035231e+00 
1.039160e+00 
1.043599e+00 
1.048543e+00 
1.053990e+00 
1.059934e+00 
1.066370e+00 
1.073293e+00 
1.080698e+00 
1.088579e+00 
1.096930e+00 
1.105745e+00 
1.115018e+00 
1.124741e+00 
1.134909e+00 
1.145515e+00 
1.156551e+00 
1.168011e+00 
1.179887e+00 
1.192173e+00 
1.204860e+00 
1.217942e+00 
1.231410e+00 
1.245259e+00 
1.259479e+00 
1.274063e+00 
1.289005e+00 
1.304296e+00 
1.319929e+00 
1.335897e+00 
1.352192e+00 
1.368807e+00 
1.385735e+00 
1.402968e+00 
1.420500e+00 
1.438324e+00 
2.329082e+00 
2.303211e+00 
2.277450e+00 
2.251802e+00 
2.226268e+00 
2.200852e+00 
2.175557e+00 
2.150387e+00 
2.125344e+00 
2.100431e+00 
2.075652e+00 
2.051011e+00 
2.026511e+00 
2.002156e+00 
1.977949e+00 
1.953895e+00 
1.929998e+00 
1.906261e+00 
1.882689e+00 
1.859287e+00 
1.836058e+00 
1.813008e+00 
1.790141e+00 
1.767463e+00 
1.744977e+00 
1.722690e+00 
1.700607e+00 
1.678734e+00 
1.657075e+00 
1.635637e+00 
1.614425e+00 
1.593446e+00 
1.572706e+00 
1.552211e+00 
1.531969e+00 
1.511984e+00 
1.492265e+00 
1.472819e+00 
1.453652e+00 
1.434772e+00 
1.416186e+00 
1.397902e+00 
1.379928e+00 
1.362271e+00 
1.344940e+00 
1.327943e+00 
1.311288e+00 
1.294983e+00 
1.279038e+00 
1.263460e+00 
1.248259e+00 
1.233443e+00 
1.219021e+00 
1.205003e+00 
1.191398e+00 
1.178214e+00 
1.165461e+00 
1.153148e+00 
1.141284e+00 
1.129879e+00 
1.118941e+00 
1.108479e+00 
1.098502e+00 
1.089020e+00 
1.080040e+00 
1.071571e+00 
1.063620e+00 
1.056194e+00 
1.049299e+00 
1.042935e+00 
1.037095e+00 
1.031756e+00 
1.026872e+00 
1.022354e+00 
1.018053e+00 
1.013832e+00 
1.009711e+00 
1.005750e+00 
1.002059e+00 
9.987392e-01 
9.958623e-01 
9.934714e-01 
9.915915e-01 
9.902360e-01 
9.894121e-01 
9.891233e-01 
9.893711e-01 
9.901555e-01 
9.914759e-01 
9.933307e-01 
9.957179e-01 
9.986350e-01 
1.002079e+00 
1.006046e+00 
1.010533e+00 
1.015536e+00 
1.021049e+00 
1.027068e+00 
1.033588e+00 
1.040603e+00 
1.048108e+00 
1.056096e+00 
1.064562e+00 
1.073499e+00 
1.082900e+00 
1.092760e+00 
1.103070e+00 
1.113825e+00 
1.125017e+00 
1.136638e+00 
1.148682e+00 
1.161140e+00 
1.174007e+00 
1.187274e+00 
1.200933e+00 
1.214977e+00 
1.229399e+00 
1.244191e+00 
1.259344e+00 
1.274852e+00 
1.290708e+00 
1.306902e+00 
1.323428e+00 
1.340279e+00 
1.357446e+00 
1.374923e+00 
1.392701e+00 
1.410775e+00 
2.311537e+00 
2.285522e+00 
2.259613e+00 
2.233813e+00 
2.208126e+00 
2.182554e+00 
2.157099e+00 
2.131766e+00 
2.106556e+00 
2.081474e+00 
2.056524e+00 
2.031707e+00 
2.007028e+00 
1.982491e+00 
1.958099e+00 
1.933857e+00 
1.909767e+00 
1.885836e+00 
1.862066e+00 
1.838462e+00 
1.815029e+00 
1.791772e+00 
1.768694e+00 
1.745802e+00 
1.723100e+00 
1.700594e+00 
1.678289e+00 
1.656190e+00 
1.634303e+00 
1.612634e+00 
1.591190e+00 
1.569975e+00 
1.548997e+00 
1.528262e+00 
1.507777e+00 
1.487549e+00 
1.467584e+00 
1.447889e+00 
1.428473e+00 
1.409342e+00 
1.390504e+00 
1.371967e+00 
1.353738e+00 
1.335827e+00 
1.318241e+00 
1.300989e+00 
1.284078e+00 
1.267519e+00 
1.251320e+00 
1.235489e+00 
1.220037e+00 
1.204972e+00 
1.190303e+00 
1.176040e+00 
1.162193e+00 
1.148772e+00 
1.135785e+00 
1.123242e+00 
1.111154e+00 
1.099530e+00 
1.088379e+00 
1.077711e+00 
1.067536e+00 
1.057862e+00 
1.048699e+00 
1.040054e+00 
1.031938e+00 
1.024356e+00 
1.017314e+00 
1.010814e+00 
1.004849e+00 
9.993999e-01 
9.944200e-01 
9.898206e-01 
9.854593e-01 
9.811859e-01 
9.770015e-01 
9.729650e-01 
9.691915e-01 
9.657903e-01 
9.628374e-01 
9.603792e-01 
9.584418e-01 
9.570395e-01 
9.561797e-01 
9.558661e-01 
9.561000e-01 
9.568815e-01 
9.582094e-01 
9.600821e-01 
9.624972e-01 
9.654518e-01 
9.689425e-01 
9.729654e-01 
9.775164e-01 
9.825908e-01 
9.881838e-01 
9.942900e-01 
1.000904e+00 
1.008020e+00 
1.015632e+00 
1.023733e+00 
1.032318e+00 
1.041379e+00 
1.050910e+00 
1.060904e+00 
1.071354e+00 
1.082253e+00 
1.093593e+00 
1.105368e+00 
1.117569e+00 
1.130190e+00 
1.143223e+00 
1.156660e+00 
1.170494e+00 
1.184717e+00 
1.199322e+00 
1.214301e+00 
1.229646e+00 
1.245349e+00 
1.261404e+00 
1.277802e+00 
1.294535e+00 
1.311597e+00 
1.328980e+00 
1.346675e+00 
1.364677e+00 
1.382976e+00 
2.294118e+00 
2.267944e+00 
2.241873e+00 
2.215909e+00 
2.190054e+00 
2.164312e+00 
2.138684e+00 
2.113174e+00 
2.087786e+00 
2.062522e+00 
2.037386e+00 
2.012382e+00 
1.987513e+00 
1.962782e+00 
1.938194e+00 