# vtk DataFile Version 2.0 
Quadtree Mesh 
ASCII 
DATASET UNSTRUCTURED_GRID 
POINTS 16384 double 
-1.000000e+00 -1.000000e+00 0.000000e+00
-9.842520e-01 -1.000000e+00 0.000000e+00
-9.685039e-01 -1.000000e+00 0.000000e+00
-9.527559e-01 -1.000000e+00 0.000000e+00
-9.370079e-01 -1.000000e+00 0.000000e+00
-9.212598e-01 -1.000000e+00 0.000000e+00
-9.055118e-01 -1.000000e+00 0.000000e+00
-8.897638e-01 -1.000000e+00 0.000000e+00
-8.740157e-01 -1.000000e+00 0.000000e+00
-8.582677e-01 -1.000000e+00 0.000000e+00
-8.425197e-01 -1.000000e+00 0.000000e+00
-8.267717e-01 -1.000000e+00 0.000000e+00
-8.110236e-01 -1.000000e+00 0.000000e+00
-7.952756e-01 -1.000000e+00 0.000000e+00
-7.795276e-01 -1.000000e+00 0.000000e+00
-7.637795e-01 -1.000000e+00 0.000000e+00
-7.480315e-01 -1.000000e+00 0.000000e+00
-7.322835e-01 -1.000000e+00 0.000000e+00
-7.165354e-01 -1.000000e+00 0.000000e+00
-7.007874e-01 -1.000000e+00 0.000000e+00
-6.850394e-01 -1.000000e+00 0.000000e+00
-6.692913e-01 -1.000000e+00 0.000000e+00
-6.535433e-01 -1.000000e+00 0.000000e+00
-6.377953e-01 -1.000000e+00 0.000000e+00
-6.220472e-01 -1.000000e+00 0.000000e+00
-6.062992e-01 -1.000000e+00 0.000000e+00
-5.905512e-01 -1.000000e+00 0.000000e+00
-5.748031e-01 -1.000000e+00 0.000000e+00
-5.590551e-01 -1.000000e+00 0.000000e+00
-5.433071e-01 -1.000000e+00 0.000000e+00
-5.275591e-01 -1.000000e+00 0.000000e+00
-5.118110e-01 -1.000000e+00 0.000000e+00
-4.960630e-01 -1.000000e+00 0.000000e+00
-4.803150e-01 -1.000000e+00 0.000000e+00
-4.645669e-01 -1.000000e+00 0.000000e+00
-4.488189e-01 -1.000000e+00 0.000000e+00
-4.330709e-01 -1.000000e+00 0.000000e+00
-4.173228e-01 -1.000000e+00 0.000000e+00
-4.015748e-01 -1.000000e+00 0.000000e+00
-3.858268e-01 -1.000000e+00 0.000000e+00
-3.700787e-01 -1.000000e+00 0.000000e+00
-3.543307e-01 -1.000000e+00 0.000000e+00
-3.385827e-01 -1.000000e+00 0.000000e+00
-3.228346e-01 -1.000000e+00 0.000000e+00
-3.070866e-01 -1.000000e+00 0.000000e+00
-2.913386e-01 -1.000000e+00 0.000000e+00
-2.755906e-01 -1.000000e+00 0.000000e+00
-2.598425e-01 -1.000000e+00 0.000000e+00
-2.440945e-01 -1.000000e+00 0.000000e+00
-2.283465e-01 -1.000000e+00 0.000000e+00
-2.125984e-01 -1.000000e+00 0.000000e+00
-1.968504e-01 -1.000000e+00 0.000000e+00
-1.811024e-01 -1.000000e+00 0.000000e+00
-1.653543e-01 -1.000000e+00 0.000000e+00
-1.496063e-01 -1.000000e+00 0.000000e+00
-1.338583e-01 -1.000000e+00 0.000000e+00
-1.181102e-01 -1.000000e+00 0.000000e+00
-1.023622e-01 -1.000000e+00 0.000000e+00
-8.661417e-02 -1.000000e+00 0.000000e+00
-7.086614e-02 -1.000000e+00 0.000000e+00
-5.511811e-02 -1.000000e+00 0.000000e+00
-3.937008e-02 -1.000000e+00 0.000000e+00
-2.362205e-02 -1.000000e+00 0.000000e+00
-7.874016e-03 -1.000000e+00 0.000000e+00
7.874016e-03 -1.000000e+00 0.000000e+00
2.362205e-02 -1.000000e+00 0.000000e+00
3.937008e-02 -1.000000e+00 0.000000e+00
5.511811e-02 -1.000000e+00 0.000000e+00
7.086614e-02 -1.000000e+00 0.000000e+00
8.661417e-02 -1.000000e+00 0.000000e+00
1.023622e-01 -1.000000e+00 0.000000e+00
1.181102e-01 -1.000000e+00 0.000000e+00
1.338583e-01 -1.000000e+00 0.000000e+00
1.496063e-01 -1.000000e+00 0.000000e+00
1.653543e-01 -1.000000e+00 0.000000e+00
1.811024e-01 -1.000000e+00 0.000000e+00
1.968504e-01 -1.000000e+00 0.000000e+00
2.125984e-01 -1.000000e+00 0.000000e+00
2.283465e-01 -1.000000e+00 0.000000e+00
2.440945e-01 -1.000000e+00 0.000000e+00
2.598425e-01 -1.000000e+00 0.000000e+00
2.755906e-01 -1.000000e+00 0.000000e+00
2.913386e-01 -1.000000e+00 0.000000e+00
3.070866e-01 -1.000000e+00 0.000000e+00
3.228346e-01 -1.000000e+00 0.000000e+00
3.385827e-01 -1.000000e+00 0.000000e+00
3.543307e-01 -1.000000e+00 0.000000e+00
3.700787e-01 -1.000000e+00 0.000000e+00
3.858268e-01 -1.000000e+00 0.000000e+00
4.015748e-01 -1.000000e+00 0.000000e+00
4.173228e-01 -1.000000e+00 0.000000e+00
4.330709e-01 -1.000000e+00 0.000000e+00
4.488189e-01 -1.000000e+00 0.000000e+00
4.645669e-01 -1.000000e+00 0.000000e+00
4.803150e-01 -1.000000e+00 0.000000e+00
4.960630e-01 -1.000000e+00 0.000000e+00
5.118110e-01 -1.000000e+00 0.000000e+00
5.275591e-01 -1.000000e+00 0.000000e+00
5.433071e-01 -1.000000e+00 0.000000e+00
5.590551e-01 -1.000000e+00 0.000000e+00
5.748031e-01 -1.000000e+00 0.000000e+00
5.905512e-01 -1.000000e+00 0.000000e+00
6.062992e-01 -1.000000e+00 0.000000e+00
6.220472e-01 -1.000000e+00 0.000000e+00
6.377953e-01 -1.000000e+00 0.000000e+00
6.535433e-01 -1.000000e+00 0.000000e+00
6.692913e-01 -1.000000e+00 0.000000e+00
6.850394e-01 -1.000000e+00 0.000000e+00
7.007874e-01 -1.000000e+00 0.000000e+00
7.165354e-01 -1.000000e+00 0.000000e+00
7.322835e-01 -1.000000e+00 0.000000e+00
7.480315e-01 -1.000000e+00 0.000000e+00
7.637795e-01 -1.000000e+00 0.000000e+00
7.795276e-01 -1.000000e+00 0.000000e+00
7.952756e-01 -1.000000e+00 0.000000e+00
8.110236e-01 -1.000000e+00 0.000000e+00
8.267717e-01 -1.000000e+00 0.000000e+00
8.425197e-01 -1.000000e+00 0.000000e+00
8.582677e-01 -1.000000e+00 0.000000e+00
8.740157e-01 -1.000000e+00 0.000000e+00
8.897638e-01 -1.000000e+00 0.000000e+00
9.055118e-01 -1.000000e+00 0.000000e+00
9.212598e-01 -1.000000e+00 0.000000e+00
9.370079e-01 -1.000000e+00 0.000000e+00
9.527559e-01 -1.000000e+00 0.000000e+00
9.685039e-01 -1.000000e+00 0.000000e+00
9.842520e-01 -1.000000e+00 0.000000e+00
1.000000e+00 -1.000000e+00 0.000000e+00
-1.000000e+00 -9.842520e-01 0.000000e+00
-9.842520e-01 -9.842520e-01 0.000000e+00
-9.685039e-01 -9.842520e-01 0.000000e+00
-9.527559e-01 -9.842520e-01 0.000000e+00
-9.370079e-01 -9.842520e-01 0.000000e+00
-9.212598e-01 -9.842520e-01 0.000000e+00
-9.055118e-01 -9.842520e-01 0.000000e+00
-8.897638e-01 -9.842520e-01 0.000000e+00
-8.740157e-01 -9.842520e-01 0.000000e+00
-8.582677e-01 -9.842520e-01 0.000000e+00
-8.425197e-01 -9.842520e-01 0.000000e+00
-8.267717e-01 -9.842520e-01 0.000000e+00
-8.110236e-01 -9.842520e-01 0.000000e+00
-7.952756e-01 -9.842520e-01 0.000000e+00
-7.795276e-01 -9.842520e-01 0.000000e+00
-7.637795e-01 -9.842520e-01 0.000000e+00
-7.480315e-01 -9.842520e-01 0.000000e+00
-7.322835e-01 -9.842520e-01 0.000000e+00
-7.165354e-01 -9.842520e-01 0.000000e+00
-7.007874e-01 -9.842520e-01 0.000000e+00
-6.850394e-01 -9.842520e-01 0.000000e+00
-6.692913e-01 -9.842520e-01 0.000000e+00
-6.535433e-01 -9.842520e-01 0.000000e+00
-6.377953e-01 -9.842520e-01 0.000000e+00
-6.220472e-01 -9.842520e-01 0.000000e+00
-6.062992e-01 -9.842520e-01 0.000000e+00
-5.905512e-01 -9.842520e-01 0.000000e+00
-5.748031e-01 -9.842520e-01 0.000000e+00
-5.590551e-01 -9.842520e-01 0.000000e+00
-5.433071e-01 -9.842520e-01 0.000000e+00
-5.275591e-01 -9.842520e-01 0.000000e+00
-5.118110e-01 -9.842520e-01 0.000000e+00
-4.960630e-01 -9.842520e-01 0.000000e+00
-4.803150e-01 -9.842520e-01 0.000000e+00
-4.645669e-01 -9.842520e-01 0.000000e+00
-4.488189e-01 -9.842520e-01 0.000000e+00
-4.330709e-01 -9.842520e-01 0.000000e+00
-4.173228e-01 -9.842520e-01 0.000000e+00
-4.015748e-01 -9.842520e-01 0.000000e+00
-3.858268e-01 -9.842520e-01 0.000000e+00
-3.700787e-01 -9.842520e-01 0.000000e+00
-3.543307e-01 -9.842520e-01 0.000000e+00
-3.385827e-01 -9.842520e-01 0.000000e+00
-3.228346e-01 -9.842520e-01 0.000000e+00
-3.070866e-01 -9.842520e-01 0.000000e+00
-2.913386e-01 -9.842520e-01 0.000000e+00
-2.755906e-01 -9.842520e-01 0.000000e+00
-2.598425e-01 -9.842520e-01 0.000000e+00
-2.440945e-01 -9.842520e-01 0.000000e+00
-2.283465e-01 -9.842520e-01 0.000000e+00
-2.125984e-01 -9.842520e-01 0.000000e+00
-1.968504e-01 -9.842520e-01 0.000000e+00
-1.811024e-01 -9.842520e-01 0.000000e+00
-1.653543e-01 -9.842520e-01 0.000000e+00
-1.496063e-01 -9.842520e-01 0.000000e+00
-1.338583e-01 -9.842520e-01 0.000000e+00
-1.181102e-01 -9.842520e-01 0.000000e+00
-1.023622e-01 -9.842520e-01 0.000000e+00
-8.661417e-02 -9.842520e-01 0.000000e+00
-7.086614e-02 -9.842520e-01 0.000000e+00
-5.511811e-02 -9.842520e-01 0.000000e+00
-3.937008e-02 -9.842520e-01 0.000000e+00
-2.362205e-02 -9.842520e-01 0.000000e+00
-7.874016e-03 -9.842520e-01 0.000000e+00
7.874016e-03 -9.842520e-01 0.000000e+00
2.362205e-02 -9.842520e-01 0.000000e+00
3.937008e-02 -9.842520e-01 0.000000e+00
5.511811e-02 -9.842520e-01 0.000000e+00
7.086614e-02 -9.842520e-01 0.000000e+00
8.661417e-02 -9.842520e-01 0.000000e+00
1.023622e-01 -9.842520e-01 0.000000e+00
1.181102e-01 -9.842520e-01 0.000000e+00
1.338583e-01 -9.842520e-01 0.000000e+00
1.496063e-01 -9.842520e-01 0.000000e+00
1.653543e-01 -9.842520e-01 0.000000e+00
1.811024e-01 -9.842520e-01 0.000000e+00
1.968504e-01 -9.842520e-01 0.000000e+00
2.125984e-01 -9.842520e-01 0.000000e+00
2.283465e-01 -9.842520e-01 0.000000e+00
2.440945e-01 -9.842520e-01 0.000000e+00
2.598425e-01 -9.842520e-01 0.000000e+00
2.755906e-01 -9.842520e-01 0.000000e+00
2.913386e-01 -9.842520e-01 0.000000e+00
3.070866e-01 -9.842520e-01 0.000000e+00
3.228346e-01 -9.842520e-01 0.000000e+00
3.385827e-01 -9.842520e-01 0.000000e+00
3.543307e-01 -9.842520e-01 0.000000e+00
3.700787e-01 -9.842520e-01 0.000000e+00
3.858268e-01 -9.842520e-01 0.000000e+00
4.015748e-01 -9.842520e-01 0.000000e+00
4.173228e-01 -9.842520e-01 0.000000e+00
4.330709e-01 -9.842520e-01 0.000000e+00
4.488189e-01 -9.842520e-01 0.000000e+00
4.645669e-01 -9.842520e-01 0.000000e+00
4.803150e-01 -9.842520e-01 0.000000e+00
4.960630e-01 -9.842520e-01 0.000000e+00
5.118110e-01 -9.842520e-01 0.000000e+00
5.275591e-01 -9.842520e-01 0.000000e+00
5.433071e-01 -9.842520e-01 0.000000e+00
5.590551e-01 -9.842520e-01 0.000000e+00
5.748031e-01 -9.842520e-01 0.000000e+00
5.905512e-01 -9.842520e-01 0.000000e+00
6.062992e-01 -9.842520e-01 0.000000e+00
6.220472e-01 -9.842520e-01 0.000000e+00
6.377953e-01 -9.842520e-01 0.000000e+00
6.535433e-01 -9.842520e-01 0.000000e+00
6.692913e-01 -9.842520e-01 0.000000e+00
6.850394e-01 -9.842520e-01 0.000000e+00
7.007874e-01 -9.842520e-01 0.000000e+00
7.165354e-01 -9.842520e-01 0.000000e+00
7.322835e-01 -9.842520e-01 0.000000e+00
7.480315e-01 -9.842520e-01 0.000000e+00
7.637795e-01 -9.842520e-01 0.000000e+00
7.795276e-01 -9.842520e-01 0.000000e+00
7.952756e-01 -9.842520e-01 0.000000e+00
8.110236e-01 -9.842520e-01 0.000000e+00
[...]
POINT_DATA 16384 
SCALARS concentration double 1 
LOOKUP_TABLE default 
2.287552e+00 
2.263064e+00 
2.238703e+00 
2.214471e+00 
2.190370e+00 
2.166404e+00 
2.142576e+00 
2.118888e+00 
2.095344e+00 
2.071946e+00 
2.048698e+00 
2.025603e+00 
2.002663e+00 
1.979883e+00 
1.957266e+00 
1.934815e+00 
1.912535e+00 
1.890428e+00 
1.868498e+00 
1.846750e+00 
1.825187e+00 
1.803813e+00 
1.782633e+00 
1.761650e+00 
1.740870e+00 
1.720295e+00 
1.699932e+00 
1.679784e+00 
1.659857e+00 
1.640154e+00 
1.620682e+00 
1.601445e+00 
1.582448e+00 
1.563697e+00 
1.545197e+00 
1.526954e+00 
1.508973e+00 
1.491261e+00 
1.473823e+00 
1.456666e+00 
1.439796e+00 
1.423219e+00 
1.406941e+00 
1.390971e+00 
1.375314e+00 
1.359977e+00 
1.344968e+00 
1.330293e+00 
1.315959e+00 
1.301975e+00 
1.288346e+00 
1.275080e+00 
1.262185e+00 
1.249668e+00 
1.237535e+00 
1.225794e+00 
1.214451e+00 
1.203515e+00 
1.192990e+00 
1.182885e+00 
1.173205e+00 
1.163956e+00 
1.155145e+00 
1.146776e+00 
1.138854e+00 
1.131383e+00 
1.124363e+00 
1.117793e+00 
1.111666e+00 
1.105967e+00 
1.100671e+00 
1.095738e+00 
1.091111e+00 
1.086718e+00 
1.082482e+00 
1.078328e+00 
1.074200e+00 
1.070104e+00 
1.066080e+00 
1.062189e+00 
1.058505e+00 
1.055099e+00 
1.052030e+00 
1.049337e+00 
1.047048e+00 
1.045181e+00 
1.043748e+00 
1.042753e+00 
1.042202e+00 
1.042096e+00 
1.042436e+00 
1.043220e+00 
1.044447e+00 
1.046115e+00 
1.048216e+00 
1.050742e+00 
1.053685e+00 
1.057044e+00 
1.060821e+00 
1.065018e+00 
1.069638e+00 
1.074683e+00 
1.080152e+00 
1.086043e+00 
1.092350e+00 
1.099068e+00 
1.106193e+00 
1.113718e+00 
1.121637e+00 
1.129946e+00 
1.138638e+00 
1.147708e+00 
1.157152e+00 
1.166964e+00 
1.177140e+00 
1.187674e+00 
1.198563e+00 
1.209800e+00 
1.221383e+00 
1.233305e+00 
1.245562e+00 
1.258151e+00 
1.271065e+00 
1.284301e+00 
1.297854e+00 
1.311720e+00 
1.325894e+00 
1.340373e+00 
2.267964e+00 
2.243336e+00 
2.218831e+00 
2.194452e+00 
2.170203e+00 
2.146085e+00 
2.122102e+00 
2.098257e+00 
2.074552e+00 
2.050991e+00 
2.027577e+00 
2.004313e+00 
1.981202e+00 
1.958248e+00 
1.935454e+00 
1.912824e+00 
1.890361e+00 
1.868069e+00 
1.845953e+00 
1.824015e+00 
1.802260e+00 
1.780692e+00 
1.759315e+00 
1.738134e+00 
1.717152e+00 
1.696375e+00 
1.675807e+00 
1.655452e+00 
1.635315e+00 
1.615402e+00 
1.595718e+00 
1.576267e+00 
1.557055e+00 
1.538088e+00 
1.519371e+00 
1.500910e+00 
1.482711e+00 
1.464781e+00 
1.447125e+00 
1.429750e+00 
1.412663e+00 
1.395871e+00 
1.379380e+00 
1.363198e+00 
1.347331e+00 
1.331788e+00 
1.316574e+00 
1.301698e+00 
1.287167e+00 
1.272989e+00 
1.259170e+00 
1.245719e+00 
1.232643e+00 
1.219948e+00 
1.207644e+00 
1.195735e+00 
1.184231e+00 
1.173137e+00 
1.162461e+00 
1.152209e+00 
1.142388e+00 
1.133004e+00 
1.124063e+00 
1.115570e+00 
1.107530e+00 
1.099947e+00 
1.092821e+00 
1.086152e+00 
1.079934e+00 
1.074153e+00 
1.068787e+00 
1.063798e+00 
1.059135e+00 
1.054726e+00 
1.050490e+00 
1.046346e+00 
1.042238e+00 
1.038161e+00 
1.034153e+00 
1.030268e+00 
1.026582e+00 
1.023169e+00 
1.020091e+00 
1.017391e+00 
1.015098e+00 
1.013231e+00 
1.011801e+00 
1.010817e+00 
1.010280e+00 
1.010194e+00 
1.010558e+00 
1.011372e+00 
1.012636e+00 
1.014345e+00 
1.016494e+00 
1.019076e+00 
1.022085e+00 
1.025520e+00 
1.029379e+00 
1.033666e+00 
1.038380e+00 
1.043522e+00 
1.049091e+00 
1.055082e+00 
1.061491e+00 
1.068314e+00 
1.075545e+00 
1.083178e+00 
1.091208e+00 
1.099629e+00 
1.108436e+00 
1.117625e+00 
1.127189e+00 
1.137124e+00 
1.147425e+00 
1.158087e+00 
1.169104e+00 
1.180472e+00 
1.192187e+00 
1.204243e+00 
1.216635e+00 
1.229359e+00 
1.242409e+00 
1.255782e+00 
1.269472e+00 
1.283475e+00 
1.297786e+00 
1.312402e+00 
2.248591e+00 
2.223815e+00 
2.199159e+00 
2.174626e+00 
2.150220e+00 
2.125944e+00 
2.101799e+00 
2.077789e+00 
2.053917e+00 
2.030186e+00 
2.006599e+00 
1.983160e+00 
1.959871e+00 
1.936737e+00 
1.913761e+00 
1.890945e+00 
1.868295e+00 
1.845813e+00 
1.823504e+00 
1.801371e+00 
1.779419e+00 
1.757651e+00 
1.736072e+00 
1.714686e+00 
1.693498e+00 
1.672511e+00 
1.651731e+00 
1.631163e+00 
1.610812e+00 
1.590681e+00 
1.570778e+00 
1.551108e+00 
1.531675e+00 
1.512486e+00 
1.493547e+00 
1.474864e+00 
1.456443e+00 
1.438290e+00 
1.420414e+00 
1.402820e+00 
1.385515e+00 
1.368506e+00 
1.351801e+00 
1.335408e+00 
1.319333e+00 
1.303584e+00 
1.288169e+00 
1.273095e+00 
1.258371e+00 
1.244003e+00 
1.229999e+00 
1.216367e+00 
1.203115e+00 
1.190249e+00 
1.177777e+00 
1.165707e+00 
1.154046e+00 
1.142800e+00 
1.131977e+00 
1.121583e+00 
1.111626e+00 
1.102110e+00 
1.093043e+00 
1.084429e+00 
1.076274e+00 
1.068581e+00 
1.061352e+00 
1.054586e+00 
1.048279e+00 
1.042419e+00 
1.036985e+00 
1.031944e+00 
1.027246e+00 
1.022824e+00 
1.018593e+00 
1.014469e+00 
1.010393e+00 
1.006348e+00 
1.002362e+00 
9.984884e-01 
9.948037e-01 
9.913870e-01 
9.883031e-01 
9.855984e-01 
9.833038e-01 
9.814391e-01 
9.800165e-01 
9.790433e-01 
9.785236e-01 
9.784592e-01 
9.788507e-01 
9.796976e-01 
9.809986e-01 
9.827511e-01 
9.849504e-01 
9.875911e-01 
9.906688e-01 
9.941808e-01 
9.981259e-01 
1.002504e+00 
1.007314e+00 
1.012556e+00 
1.018225e+00 
1.024319e+00 
1.030833e+00 
1.037762e+00 
1.045101e+00 
1.052845e+00 
1.060989e+00 
1.069526e+00 
1.078453e+00 
1.087763e+00 
1.097452e+00 
1.107514e+00 
1.117944e+00 
1.128738e+00 
1.139890e+00 
1.151395e+00 
1.163247e+00 
1.175443e+00 
1.187976e+00 
1.200842e+00 
1.214036e+00 
1.227552e+00 
1.241386e+00 
1.255533e+00 
1.269989e+00 
1.284748e+00 
2.229397e+00 
2.204466e+00 
2.179653e+00 
2.154961e+00 
2.130393e+00 
2.105951e+00 
2.081639e+00 
2.057460e+00 
2.033415e+00 
2.009510e+00 
1.985746e+00 
1.962127e+00 
1.938656e+00 
1.915336e+00 
1.892172e+00 
1.869167e+00 
1.846324e+00 
1.823646e+00 
1.801139e+00 
1.778806e+00 
1.756650e+00 
1.734676e+00 
1.712888e+00 
1.691292e+00 
1.669890e+00 
1.648688e+00 
1.627691e+00 
1.606903e+00 
1.586330e+00 
1.565978e+00 
1.545851e+00 
1.525957e+00 
1.506299e+00 
1.486885e+00 
1.467722e+00 
1.448815e+00 
1.430171e+00 
1.411798e+00 
1.393702e+00 
1.375890e+00 
1.358371e+00 
1.341150e+00 
1.324237e+00 
1.307638e+00 
1.291362e+00 
1.275415e+00 
1.259807e+00 
1.244543e+00 
1.229634e+00 
1.215085e+00 
1.200905e+00 
1.187101e+00 
1.173680e+00 
1.160652e+00 
1.148021e+00 
1.135797e+00 
1.123986e+00 
1.112595e+00 
1.101631e+00 
1.091101e+00 
1.081012e+00 
1.071369e+00 
1.062180e+00 
1.053449e+00 
1.045181e+00 
1.037381e+00 
1.030051e+00 
1.023190e+00 
1.016796e+00 
1.010857e+00 
1.005357e+00 
1.000264e+00 
9.955332e-01 
9.910967e-01 
9.868711e-01 
9.827697e-01 
9.787292e-01 
9.747266e-01 
9.707699e-01 
9.669103e-01 
9.632283e-01 
9.598083e-01 
9.567193e-01 
9.540105e-01 
9.517146e-01 
9.498523e-01 
9.484366e-01 
9.474752e-01 
9.469724e-01 
9.469303e-01 
9.473495e-01 
9.482294e-01 
9.495688e-01 
9.513653e-01 
9.536154e-01 
9.563149e-01 
9.594598e-01 
9.630474e-01 
9.670755e-01 
9.715424e-01 
9.764461e-01 
9.817838e-01 
9.875524e-01 
9.937479e-01 
1.000366e+00 
1.007401e+00 
1.014849e+00 
1.022705e+00 
1.030964e+00 
1.039619e+00 
1.048667e+00 
1.058102e+00 
1.067919e+00 
1.078112e+00 
1.088676e+00 
1.099607e+00 
1.110898e+00 
1.122545e+00 
1.134542e+00 
1.146884e+00 
1.159565e+00 
1.172581e+00 
1.185925e+00 
1.199594e+00 
1.213581e+00 
1.227881e+00 
1.242490e+00 
1.257403e+00 
2.210355e+00 
2.185265e+00 
2.160291e+00 
2.135435e+00 
2.110701e+00 
2.086090e+00 
2.061607e+00 
2.037253e+00 
2.013033e+00 
1.988948e+00 
1.965002e+00 
1.941199e+00 
1.917541e+00 
1.894031e+00 
1.870675e+00 
1.847474e+00 
1.824432e+00 
1.801554e+00 
1.778843e+00 
1.756303e+00 
1.733938e+00 
1.711752e+00 
1.689751e+00 
1.667938e+00 
1.646318e+00 
1.624896e+00 
1.603677e+00 
1.582667e+00 
1.561871e+00 
1.541295e+00 
1.520944e+00 
1.500825e+00 
1.480945e+00 
1.461309e+00 
1.441925e+00 
1.422799e+00 
1.403939e+00 
1.385351e+00 
1.367044e+00 
1.349024e+00 
1.331300e+00 
1.313878e+00 
1.296767e+00 
1.279975e+00 
1.263509e+00 
1.247377e+00 
1.231587e+00 
1.216146e+00 
1.201063e+00 
1.186344e+00 
1.171998e+00 
1.158032e+00 
1.144454e+00 
1.131271e+00 
1.118490e+00 
1.106118e+00 
1.094164e+00 
1.082633e+00 
1.071533e+00 
1.060870e+00 
1.050652e+00 
1.040884e+00 
1.031574e+00 
1.022726e+00 
1.014346e+00 
1.006439e+00 
9.990069e-01 
9.920506e-01 
9.855675e-01 
9.795496e-01 
9.739809e-01 
9.688341e-01 
9.640650e-01 
9.596094e-01 
9.553839e-01 
9.512994e-01 
9.472882e-01 
9.433239e-01 
9.393972e-01 
9.355494e-01 
9.318673e-01 
9.284414e-01 
9.253444e-01 
9.226288e-01 
9.203286e-01 
9.184658e-01 
9.170542e-01 
9.161022e-01 
9.156144e-01 
9.155930e-01 
9.160386e-01 
9.169506e-01 
9.183278e-01 
9.201680e-01 
9.224682e-01 
9.252248e-01 
9.284344e-01 
9.320939e-01 
9.362004e-01 
9.407511e-01 
9.457430e-01 
9.511727e-01 
9.570364e-01 
9.633300e-01 
9.700490e-01 
9.771888e-01 
9.847445e-01 
9.927113e-01 
1.001084e+00 
1.009858e+00 
1.019028e+00 
1.028588e+00 
1.038534e+00 
1.048860e+00 
1.059561e+00 
1.070632e+00 
1.082067e+00 
1.093860e+00 
1.106007e+00 
1.118501e+00 
1.131337e+00 
1.144510e+00 
1.158013e+00 
1.171842e+00 
1.185992e+00 
1.200455e+00 
1.215228e+00 
1.230305e+00 
2.191449e+00 
2.166197e+00 
2.141058e+00 
2.116035e+00 
2.091131e+00 
2.066349e+00 
2.041691e+00 
2.017159e+00 
1.992758e+00 
1.968490e+00 
1.944359e+00 
1.920366e+00 
1.896517e+00 
1.872813e+00 
1.849259e+00 
1.825858e+00 
1.802614e+00 
1.779530e+00 
1.756611e+00 
1.733861e+00 
1.711283e+00 
1.688884e+00 
1.666666e+00 
1.644635e+00 
1.622796e+00 
1.601155e+00 
1.579716e+00 
1.558486e+00 
1.537471e+00 
1.516675e+00 
1.496107e+00 
1.475771e+00 
1.455676e+00 
1.435828e+00 
1.416234e+00 
1.396901e+00 
1.377836e+00 
1.359048e+00 
1.340543e+00 
1.322329e+00 
1.304414e+00 
1.286806e+00 
1.269512e+00 
1.252540e+00 
1.235898e+00 
1.219593e+00 
1.203633e+00 
1.188026e+00 
1.172779e+00 
1.157900e+00 
1.143396e+00 
1.129275e+00 
1.115544e+00 
1.102211e+00 
1.089282e+00 
1.076766e+00 
1.064668e+00 
1.052997e+00 
1.041760e+00 
1.030963e+00 
1.020613e+00 
1.010717e+00 
1.001282e+00 
9.923128e-01 
9.838161e-01 
9.757964e-01 
9.682572e-01 
9.612000e-01 
9.546231e-01 
9.485202e-01 
9.428774e-01 
9.376693e-01 
9.328542e-01 
9.283693e-01 
9.241320e-01 
9.200512e-01 
9.160546e-01 
9.121107e-01 
9.082079e-01 
9.043650e-01 
9.006771e-01 
8.972399e-01 
8.941301e-01 
8.914029e-01 
8.890943e-01 
8.872274e-01 
8.858172e-01 
8.848726e-01 
8.843985e-01 
8.843973e-01 
8.848695e-01 
8.858144e-01 
8.872306e-01 
8.891157e-01 
8.914669e-01 
8.942809e-01 
8.975542e-01 
9.012835e-01 
9.054653e-01 
9.100961e-01 
9.151722e-01 
9.206898e-01 
9.266447e-01 
9.330328e-01 
9.398494e-01 
9.470901e-01 
9.547501e-01 
9.628247e-01 
9.713091e-01 
9.801982e-01 
9.894872e-01 
9.991709e-01 
1.009244e+00 
1.019702e+00 
1.030539e+00 
1.041749e+00 
1.053327e+00 
1.065268e+00 
1.077566e+00 
1.090215e+00 
1.103210e+00 
1.116544e+00 
1.130212e+00 
1.144209e+00 
1.158528e+00 
1.173163e+00 
1.188110e+00 
1.203362e+00 
2.172675e+00 
2.147258e+00 
2.121952e+00 
2.096760e+00 
2.071683e+00 
2.046726e+00 
2.021890e+00 
1.997178e+00 
1.972594e+00 
1.948140e+00 
1.923819e+00 
1.899635e+00 
1.875591e+00 
1.851690e+00 
1.827937e+00 
1.804334e+00 
1.780885e+00 
1.757596e+00 
1.734468e+00 
1.711509e+00 
1.688720e+00 
1.666108e+00 
1.643678e+00 
1.621434e+00 
1.599383e+00 
1.577529e+00 
1.555878e+00 
1.534437e+00 
1.513212e+00 
1.492209e+00 
1.471434e+00 
1.450896e+00 
1.430600e+00 
1.410553e+00 
1.390764e+00 
1.371239e+00 
1.351985e+00 
1.333011e+00 
1.314323e+00 
1.295929e+00 
1.277837e+00 
1.260055e+00 
1.242589e+00 
1.225447e+00 
1.208638e+00 
1.192168e+00 
1.176045e+00 
1.160277e+00 
1.144870e+00 
1.129831e+00 
1.115170e+00 
1.100893e+00 
1.087007e+00 
1.073520e+00 
1.060439e+00 
1.047772e+00 
1.035525e+00 
1.023707e+00 
1.012324e+00 
1.001383e+00 
9.908924e-01 
9.808584e-01 
9.712882e-01 
9.621882e-01 
9.535646e-01 
9.454227e-01 
9.377669e-01 
9.305995e-01 
9.239201e-01 
9.177237e-01 
9.119978e-01 
9.067191e-01 
9.018472e-01 
8.973205e-01 
8.930570e-01 
8.889638e-01 
8.849652e-01 
8.810253e-01 
8.771322e-01 
8.732863e-01 
8.695873e-01 
8.661355e-01 
8.630102e-01 
8.602701e-01 
8.579527e-01 
8.560828e-01 
8.546764e-01 
8.537429e-01 
8.532876e-01 
8.533125e-01 
8.538179e-01 
8.548027e-01 
8.562649e-01 
8.582021e-01 
8.606110e-01 
8.634880e-01 
8.668296e-01 
8.706317e-01 
8.748905e-01 
8.796019e-01 
8.847619e-01 
8.903661e-01 
8.964102e-01 
9.028900e-01 
9.098008e-01 
9.171383e-01 
9.248979e-01 
9.330750e-01 
9.416649e-01 
9.506630e-01 
9.600645e-01 
9.698645e-01 
9.800581e-01 
9.906402e-01 
1.001606e+00 
1.012949e+00 
1.024665e+00 
1.036748e+00 
1.049193e+00 
1.061993e+00 
1.075144e+00 
1.088638e+00 
1.102470e+00 
1.116634e+00 
1.131125e+00 
1.145935e+00 
1.161060e+00 
1.176492e+00 
2.154045e+00 
2.128462e+00 
2.102988e+00 
2.077625e+00 
2.052375e+00 
2.027241e+00 
2.002226e+00 
1.977332e+00 
1.952564e+00 
1.927923e+00 
1.903413e+00 
1.879037e+00 
1.854800e+00 
1.830703e+00 
1.806751e+00 
1.782949e+00 
1.759299e+00 
1.735807e+00 
1.712476e+00 
1.689312e+00 
1.666320e+00 
1.643504e+00 
1.620869e+00 
1.598422e+00 
1.576168e+00 
1.554114e+00 
1.532265e+00 
1.510626e+00 
1.489205e+00 
1.468008e+00 
1.447043e+00 
1.426315e+00 
1.405833e+00 
1.385602e+00 
1.365631e+00 
1.345927e+00 
1.326497e+00 
1.307348e+00 
1.288487e+00 
1.269923e+00 
1.251661e+00 
1.233711e+00 
1.216078e+00 
1.198771e+00 
1.181796e+00 
1.165161e+00 
1.148874e+00 
1.132941e+00 
1.117361e+00 
1.102148e+00 
1.087322e+00 
1.072880e+00 
1.058829e+00 
1.045178e+00 
1.031933e+00 
1.019102e+00 
1.006693e+00 
9.947140e-01 
9.831717e-01 
9.720740e-01 
9.614286e-01 
9.512430e-01 
9.415245e-01 
9.322803e-01 
9.235172e-01 
9.152414e-01 
9.074579e-01 
9.001702e-01 
8.933788e-01 
8.870800e-01 
8.812628e-01 
8.759048e-01 
8.709668e-01 
8.663874e-01 
8.620854e-01 
8.579674e-01 
8.539556e-01 
8.500095e-01 
8.461171e-01 
8.422686e-01 
8.385612e-01 
8.350985e-01 
8.319633e-01 
8.292179e-01 
8.269014e-01 
8.250401e-01 
8.236510e-01 
8.227439e-01 
8.223235e-01 
8.223915e-01 
8.229473e-01 
8.239893e-01 
8.255148e-01 
8.275203e-01 
8.300021e-01 
8.329562e-01 
8.363780e-01 
8.402632e-01 
8.446074e-01 
8.494058e-01 
8.546540e-01 
8.603474e-01 
8.664816e-01 
8.730520e-01 
8.800543e-01 
8.874842e-01 
8.953372e-01 
9.036091e-01 
9.122956e-01 
9.213923e-01 
9.308948e-01 
9.407987e-01 
9.510995e-01 
9.617924e-01 
9.728726e-01 
9.843352e-01 
9.961751e-01 
1.008387e+00 
1.020965e+00 
1.033905e+00 
1.047199e+00 
1.060843e+00 
1.074830e+00 
1.089154e+00 
1.103809e+00 
1.118788e+00 
1.134086e+00 
1.149696e+00 
2.135596e+00 
2.109848e+00 
2.084206e+00 
2.058672e+00 
2.033249e+00 
2.007939e+00 
1.982746e+00 
1.957672e+00 
1.932720e+00 
1.907894e+00 
1.883198e+00 
1.858633e+00 
1.834205e+00 
1.809916e+00 
1.785771e+00 
1.761775e+00 
1.737930e+00 
1.714243e+00 
1.690717e+00 
1.667357e+00 
1.644170e+00 
1.621159e+00 
1.598331e+00 
1.575692e+00 
1.553254e+00 
1.531022e+00 
1.508990e+00 
1.487166e+00 
1.465563e+00 
1.444185e+00 
1.423041e+00 
1.402136e+00 
1.381479e+00 
1.361075e+00 
1.340932e+00 
1.321057e+00 
1.301457e+00 
1.282138e+00 
1.263109e+00 
1.244377e+00 
1.225947e+00 
1.207828e+00 
1.190027e+00 
1.172551e+00 
1.155406e+00 
1.138601e+00 
1.122142e+00 
1.106015e+00 
1.090220e+00 
1.074810e+00 
1.059806e+00 
1.045184e+00 
1.030954e+00 
1.017124e+00 
1.003700e+00 
9.906908e-01 
9.781046e-01 
9.659492e-01 
9.542327e-01 
9.429632e-01 
9.321488e-01 
9.217976e-01 
9.119177e-01 
9.025169e-01 
8.936029e-01 
8.851828e-01 
8.772626e-01 
8.698468e-01 
8.629370e-01 
8.565304e-01 
8.506171e-01 
8.451755e-01 
8.401666e-01 
8.355289e-01 
8.311825e-01 
8.270354e-01 
8.230083e-01 
8.190563e-01 
8.151654e-01 
8.113300e-01 
8.076282e-01 
8.041699e-01 
8.010422e-01 
7.983116e-01 
7.960184e-01 
7.941905e-01 
7.928455e-01 
7.919928e-01 
7.916362e-01 
7.917762e-01 
7.924112e-01 
7.935384e-01 
7.951537e-01 
7.972529e-01 
7.998312e-01 
8.028835e-01 
8.064046e-01 
8.103892e-01 
8.148323e-01 
8.197286e-01 
8.250732e-01 
8.308612e-01 
8.370880e-01 
8.437490e-01 
8.508400e-01 
8.583568e-01 
8.662954e-01 
8.746519e-01 
8.834225e-01 
8.926034e-01 
9.021909e-01 
9.121810e-01 
9.225699e-01 
9.333535e-01 
9.445277e-01 
9.560881e-01 
9.680301e-01 
9.803490e-01 
9.930397e-01 
1.006097e+00 
1.019515e+00 
1.033289e+00 
1.047412e+00 
1.061879e+00 
1.076682e+00 
1.091817e+00 
1.107276e+00 
1.123052e+00 
2.117384e+00 
2.091471e+00 
2.065661e+00 
2.039957e+00 
2.014362e+00 
1.988878e+00 
1.963508e+00 
1.938256e+00 
1.913124e+00 
1.888116e+00 
1.863236e+00 
1.838487e+00 
1.813873e+00 
1.789397e+00 
1.765066e+00 
1.740881e+00 
1.716849e+00 
1.692974e+00 
1.669261e+00 
1.645715e+00 
1.622342e+00 
1.599147e+00 
1.576135e+00 
1.553331e+00 
1.530748e+00 
1.508360e+00 
1.486158e+00 
1.464160e+00 
1.442384e+00 
1.420836e+00 
1.399521e+00 
1.378447e+00 
1.357621e+00 
1.337049e+00 
1.316738e+00 
1.296694e+00 
1.276925e+00 
1.257437e+00 
1.238238e+00 
1.219334e+00 
1.200732e+00 
1.182438e+00 
1.164461e+00 
1.146807e+00 
1.129483e+00 
1.112497e+00 
1.095824e+00 
1.079426e+00 
1.063367e+00 
1.047745e+00 
1.032545e+00 
1.017729e+00 
1.003303e+00 
9.892766e-01 
9.756573e-01 
9.624537e-01 
9.496740e-01 
9.373268e-01 
9.254206e-01 
9.139642e-01 
9.029663e-01 
8.924358e-01 
8.823816e-01 
8.728128e-01 
8.637381e-01 
8.551655e-01 
8.471024e-01 
8.395542e-01 
8.325236e-01 
8.260087e-01 
8.199999e-01 
8.144761e-01 
8.093977e-01 
8.047023e-01 
8.003131e-01 
7.961411e-01 
7.921050e-01 
7.881576e-01 
7.842804e-01 
7.804686e-01 
7.767935e-01 
7.733641e-01 
7.702715e-01 
7.675857e-01 
7.653487e-01 
7.635896e-01 
7.623257e-01 
7.615650e-01 
7.613099e-01 
7.615590e-01 
7.623090e-01 
7.635554e-01 
7.652929e-01 
7.675155e-01 
7.702174e-01 
7.733922e-01 
7.770336e-01 
7.811356e-01 
7.856920e-01 
7.906972e-01 
7.961457e-01 
8.020323e-01 
8.083521e-01 
8.151008e-01 
8.222741e-01 
8.298682e-01 
8.378796e-01 
8.463050e-01 
8.551413e-01 
8.643854e-01 
8.740345e-01 
8.840856e-01 
8.945358e-01 
9.053820e-01 
9.166210e-01 
9.282493e-01 
9.402633e-01 
9.526590e-01 
9.654322e-01 
9.785782e-01 
9.920921e-01 
1.005969e+00 
1.020202e+00 
1.034787e+00 
1.049717e+00 
1.064986e+00 
1.080587e+00 
1.096514e+00 
2.099448e+00 
2.073370e+00 
2.047392e+00 
2.021519e+00 
1.995752e+00 
1.970094e+00 
1.944549e+00 
1.919120e+00 
1.893810e+00 
1.868623e+00 
1.843563e+00 
1.818632e+00 
1.793837e+00 
1.769180e+00 
1.744666e+00 
1.720300e+00 
1.696086e+00 
1.672030e+00 
1.648137e+00 
1.624411e+00 
1.600858e+00 
1.577484e+00 
1.554323e+00 
1.531413e+00 
1.508720e+00 
1.486185e+00 
1.463814e+00 
1.441647e+00 
1.419702e+00 
1.397983e+00 
1.376498e+00 
1.355253e+00 
1.334255e+00 
1.313509e+00 
1.293023e+00 
1.272803e+00 
1.252855e+00 
1.233186e+00 
1.213803e+00 
1.194713e+00 
1.175921e+00 
1.157436e+00 
1.139265e+00 
1.121413e+00 
1.103890e+00 
1.086670e+00 
1.069687e+00 
1.052957e+00 
1.036630e+00 
1.020790e+00 
1.005375e+00 
9.903419e-01 
9.756998e-01 
9.614566e-01 
9.476212e-01 
9.342021e-01 
9.212084e-01 
9.086491e-01 
8.965335e-01 
8.848710e-01 
8.736716e-01 
8.629453e-01 
8.527024e-01 
8.429533e-01 
8.337083e-01 
8.249770e-01 
8.167679e-01 
8.090875e-01 
8.019392e-01 
7.953214e-01 
7.892246e-01 
7.836268e-01 
7.784873e-01 
7.737429e-01 
7.693216e-01 
7.651358e-01 
7.611017e-01 
7.571710e-01 
7.533166e-01 
7.495473e-01 
7.459280e-01 
7.425608e-01 
7.395404e-01 
7.369401e-01 
7.348036e-01 
7.331600e-01 
7.320250e-01 
7.314042e-01 
7.312974e-01 
7.317008e-01 
7.326088e-01 
7.340147e-01 
7.359115e-01 
7.382917e-01 
7.411475e-01 
7.444713e-01 
7.482556e-01 
7.524933e-01 
7.571773e-01 
7.623013e-01 
7.678590e-01 
7.738452e-01 
7.802547e-01 
7.870832e-01 
7.943268e-01 
8.019821e-01 
8.100462e-01 
8.185164e-01 
8.273906e-01 
8.366669e-01 
8.463435e-01 
8.564186e-01 
8.668908e-01 
8.777582e-01 
8.890191e-01 
9.006713e-01 
9.127126e-01 
9.251401e-01 
9.379509e-01 
9.511415e-01 
9.647079e-01 
9.786458e-01 
9.929502e-01 
1.007616e+00 
1.022637e+00 
1.038008e+00 
1.053722e+00 
1.069772e+00 
2.081755e+00 
2.055508e+00 
2.029360e+00 
2.003314e+00 
1.977373e+00 
1.951540e+00 
1.925819e+00 
1.900213e+00 
1.874725e+00 
1.849359e+00 
1.824119e+00 
1.799009e+00 
1.774033e+00 
1.749197e+00 
1.724503e+00 