# vtk DataFile Version 2.0 
Quadtree Mesh 
ASCII 
DATASET UNSTRUCTURED_GRID 
POINTS 16384 double 
-1.000000e+00 -1.000000e+00 0.000000e+00
-9.842520e-01 -1.000000e+00 0.000000e+00
-9.685039e-01 -1.000000e+00 0.000000e+00
-9.527559e-01 -1.000000e+00 0.000000e+00
-9.370079e-01 -1.000000e+00 0.000000e+00
-9.212598e-01 -1.000000e+00 0.000000e+00
-9.055118e-01 -1.000000e+00 0.000000e+00
-8.897638e-01 -1.000000e+00 0.000000e+00
-8.740157e-01 -1.000000e+00 0.000000e+00
-8.582677e-01 -1.000000e+00 0.000000e+00
-8.425197e-01 -1.000000e+00 0.000000e+00
-8.267717e-01 -1.000000e+00 0.000000e+00
-8.110236e-01 -1.000000e+00 0.000000e+00
-7.952756e-01 -1.000000e+00 0.000000e+00
-7.795276e-01 -1.000000e+00 0.000000e+00
-7.637795e-01 -1.000000e+00 0.000000e+00
-7.480315e-01 -1.000000e+00 0.000000e+00
-7.322835e-01 -1.000000e+00 0.000000e+00
-7.165354e-01 -1.000000e+00 0.000000e+00
-7.007874e-01 -1.000000e+00 0.000000e+00
-6.850394e-01 -1.000000e+00 0.000000e+00
-6.692913e-01 -1.000000e+00 0.000000e+00
-6.535433e-01 -1.000000e+00 0.000000e+00
-6.377953e-01 -1.000000e+00 0.000000e+00
-6.220472e-01 -1.000000e+00 0.000000e+00
-6.062992e-01 -1.000000e+00 0.000000e+00
-5.905512e-01 -1.000000e+00 0.000000e+00
-5.748031e-01 -1.000000e+00 0.000000e+00
-5.590551e-01 -1.000000e+00 0.000000e+00
-5.433071e-01 -1.000000e+00 0.000000e+00
-5.275591e-01 -1.000000e+00 0.000000e+00
-5.118110e-01 -1.000000e+00 0.000000e+00
-4.960630e-01 -1.000000e+00 0.000000e+00
-4.803150e-01 -1.000000e+00 0.000000e+00
-4.645669e-01 -1.000000e+00 0.000000e+00
-4.488189e-01 -1.000000e+00 0.000000e+00
-4.330709e-01 -1.000000e+00 0.000000e+00
-4.173228e-01 -1.000000e+00 0.000000e+00
-4.015748e-01 -1.000000e+00 0.000000e+00
-3.858268e-01 -1.000000e+00 0.000000e+00
-3.700787e-01 -1.000000e+00 0.000000e+00
-3.543307e-01 -1.000000e+00 0.000000e+00
-3.385827e-01 -1.000000e+00 0.000000e+00
-3.228346e-01 -1.000000e+00 0.000000e+00
-3.070866e-01 -1.000000e+00 0.000000e+00
-2.913386e-01 -1.000000e+00 0.000000e+00
-2.755906e-01 -1.000000e+00 0.000000e+00
-2.598425e-01 -1.000000e+00 0.000000e+00
-2.440945e-01 -1.000000e+00 0.000000e+00
-2.283465e-01 -1.000000e+00 0.000000e+00
-2.125984e-01 -1.000000e+00 0.000000e+00
-1.968504e-01 -1.000000e+00 0.000000e+00
-1.811024e-01 -1.000000e+00 0.000000e+00
-1.653543e-01 -1.000000e+00 0.000000e+00
-1.496063e-01 -1.000000e+00 0.000000e+00
-1.338583e-01 -1.000000e+00 0.000000e+00
-1.181102e-01 -1.000000e+00 0.000000e+00
-1.023622e-01 -1.000000e+00 0.000000e+00
-8.661417e-02 -1.000000e+00 0.000000e+00
-7.086614e-02 -1.000000e+00 0.000000e+00
-5.511811e-02 -1.000000e+00 0.000000e+00
-3.937008e-02 -1.000000e+00 0.000000e+00
-2.362205e-02 -1.000000e+00 0.000000e+00
-7.874016e-03 -1.000000e+00 0.000000e+00
7.874016e-03 -1.000000e+00 0.000000e+00
2.362205e-02 -1.000000e+00 0.000000e+00
3.937008e-02 -1.000000e+00 0.000000e+00
5.511811e-02 -1.000000e+00 0.000000e+00
7.086614e-02 -1.000000e+00 0.000000e+00
8.661417e-02 -1.000000e+00 0.000000e+00
1.023622e-01 -1.000000e+00 0.000000e+00
1.181102e-01 -1.000000e+00 0.000000e+00
1.338583e-01 -1.000000e+00 0.000000e+00
1.496063e-01 -1.000000e+00 0.000000e+00
1.653543e-01 -1.000000e+00 0.000000e+00
1.811024e-01 -1.000000e+00 0.000000e+00
1.968504e-01 -1.000000e+00 0.000000e+00
2.125984e-01 -1.000000e+00 0.000000e+00
2.283465e-01 -1.000000e+00 0.000000e+00
2.440945e-01 -1.000000e+00 0.000000e+00
2.598425e-01 -1.000000e+00 0.000000e+00
2.755906e-01 -1.000000e+00 0.000000e+00
2.913386e-01 -1.000000e+00 0.000000e+00
3.070866e-01 -1.000000e+00 0.000000e+00
3.228346e-01 -1.000000e+00 0.000000e+00
3.385827e-01 -1.000000e+00 0.000000e+00
3.543307e-01 -1.000000e+00 0.000000e+00
3.700787e-01 -1.000000e+00 0.000000e+00
3.858268e-01 -1.000000e+00 0.000000e+00
4.015748e-01 -1.000000e+00 0.000000e+00
4.173228e-01 -1.000000e+00 0.000000e+00
4.330709e-01 -1.000000e+00 0.000000e+00
4.488189e-01 -1.000000e+00 0.000000e+00
4.645669e-01 -1.000000e+00 0.000000e+00
4.803150e-01 -1.000000e+00 0.000000e+00
4.960630e-01 -1.000000e+00 0.000000e+00
5.118110e-01 -1.000000e+00 0.000000e+00
5.275591e-01 -1.000000e+00 0.000000e+00
5.433071e-01 -1.000000e+00 0.000000e+00
5.590551e-01 -1.000000e+00 0.000000e+00
5.748031e-01 -1.000000e+00 0.000000e+00
5.905512e-01 -1.000000e+00 0.000000e+00
6.062992e-01 -1.000000e+00 0.000000e+00
6.220472e-01 -1.000000e+00 0.000000e+00
6.377953e-01 -1.000000e+00 0.000000e+00
6.535433e-01 -1.000000e+00 0.000000e+00
6.692913e-01 -1.000000e+00 0.000000e+00
6.850394e-01 -1.000000e+00 0.000000e+00
7.007874e-01 -1.000000e+00 0.000000e+00
7.165354e-01 -1.000000e+00 0.000000e+00
7.322835e-01 -1.000000e+00 0.000000e+00
7.480315e-01 -1.000000e+00 0.000000e+00
7.637795e-01 -1.000000e+00 0.000000e+00
7.795276e-01 -1.000000e+00 0.000000e+00
7.952756e-01 -1.000000e+00 0.000000e+00
8.110236e-01 -1.000000e+00 0.000000e+00
8.267717e-01 -1.000000e+00 0.000000e+00
8.425197e-01 -1.000000e+00 0.000000e+00
8.582677e-01 -1.000000e+00 0.000000e+00
8.740157e-01 -1.000000e+00 0.000000e+00
8.897638e-01 -1.000000e+00 0.000000e+00
9.055118e-01 -1.000000e+00 0.000000e+00
9.212598e-01 -1.000000e+00 0.000000e+00
9.370079e-01 -1.000000e+00 0.000000e+00
9.527559e-01 -1.000000e+00 0.000000e+00
9.685039e-01 -1.000000e+00 0.000000e+00
9.842520e-01 -1.000000e+00 0.000000e+00
1.000000e+00 -1.000000e+00 0.000000e+00
-1.000000e+00 -9.842520e-01 0.000000e+00
-9.842520e-01 -9.842520e-01 0.000000e+00
-9.685039e-01 -9.842520e-01 0.000000e+00
-9.527559e-01 -9.842520e-01 0.000000e+00
-9.370079e-01 -9.842520e-01 0.000000e+00
-9.212598e-01 -9.842520e-01 0.000000e+00
-9.055118e-01 -9.842520e-01 0.000000e+00
-8.897638e-01 -9.842520e-01 0.000000e+00
-8.740157e-01 -9.842520e-01 0.000000e+00
-8.582677e-01 -9.842520e-01 0.000000e+00
-8.425197e-01 -9.842520e-01 0.000000e+00
-8.267717e-01 -9.842520e-01 0.000000e+00
-8.110236e-01 -9.842520e-01 0.000000e+00
-7.952756e-01 -9.842520e-01 0.000000e+00
-7.795276e-01 -9.842520e-01 0.000000e+00
-7.637795e-01 -9.842520e-01 0.000000e+00
-7.480315e-01 -9.842520e-01 0.000000e+00
-7.322835e-01 -9.842520e-01 0.000000e+00
-7.165354e-01 -9.842520e-01 0.000000e+00
-7.007874e-01 -9.842520e-01 0.000000e+00
-6.850394e-01 -9.842520e-01 0.000000e+00
-6.692913e-01 -9.842520e-01 0.000000e+00
-6.535433e-01 -9.842520e-01 0.000000e+00
-6.377953e-01 -9.842520e-01 0.000000e+00
-6.220472e-01 -9.842520e-01 0.000000e+00
-6.062992e-01 -9.842520e-01 0.000000e+00
-5.905512e-01 -9.842520e-01 0.000000e+00
-5.748031e-01 -9.842520e-01 0.000000e+00
-5.590551e-01 -9.842520e-01 0.000000e+00
-5.433071e-01 -9.842520e-01 0.000000e+00
-5.275591e-01 -9.842520e-01 0.000000e+00
-5.118110e-01 -9.842520e-01 0.000000e+00
-4.960630e-01 -9.842520e-01 0.000000e+00
-4.803150e-01 -9.842520e-01 0.000000e+00
-4.645669e-01 -9.842520e-01 0.000000e+00
-4.488189e-01 -9.842520e-01 0.000000e+00
-4.330709e-01 -9.842520e-01 0.000000e+00
-4.173228e-01 -9.842520e-01 0.000000e+00
-4.015748e-01 -9.842520e-01 0.000000e+00
-3.858268e-01 -9.842520e-01 0.000000e+00
-3.700787e-01 -9.842520e-01 0.000000e+00
-3.543307e-01 -9.842520e-01 0.000000e+00
-3.385827e-01 -9.842520e-01 0.000000e+00
-3.228346e-01 -9.842520e-01 0.000000e+00
-3.070866e-01 -9.842520e-01 0.000000e+00
-2.913386e-01 -9.842520e-01 0.000000e+00
-2.755906e-01 -9.842520e-01 0.000000e+00
-2.598425e-01 -9.842520e-01 0.000000e+00
-2.440945e-01 -9.842520e-01 0.000000e+00
-2.283465e-01 -9.842520e-01 0.000000e+00
-2.125984e-01 -9.842520e-01 0.000000e+00
-1.968504e-01 -9.842520e-01 0.000000e+00
-1.811024e-01 -9.842520e-01 0.000000e+00
-1.653543e-01 -9.842520e-01 0.000000e+00
-1.496063e-01 -9.842520e-01 0.000000e+00
-1.338583e-01 -9.842520e-01 0.000000e+00
-1.181102e-01 -9.842520e-01 0.000000e+00
-1.023622e-01 -9.842520e-01 0.000000e+00
-8.661417e-02 -9.842520e-01 0.000000e+00
-7.086614e-02 -9.842520e-01 0.000000e+00
-5.511811e-02 -9.842520e-01 0.000000e+00
-3.937008e-02 -9.842520e-01 0.000000e+00
-2.362205e-02 -9.842520e-01 0.000000e+00
-7.874016e-03 -9.842520e-01 0.000000e+00
7.874016e-03 -9.842520e-01 0.000000e+00
2.362205e-02 -9.842520e-01 0.000000e+00
3.937008e-02 -9.842520e-01 0.000000e+00
5.511811e-02 -9.842520e-01 0.000000e+00
7.086614e-02 -9.842520e-01 0.000000e+00
8.661417e-02 -9.842520e-01 0.000000e+00
1.023622e-01 -9.842520e-01 0.000000e+00
1.181102e-01 -9.842520e-01 0.000000e+00
1.338583e-01 -9.842520e-01 0.000000e+00
1.496063e-01 -9.842520e-01 0.000000e+00
1.653543e-01 -9.842520e-01 0.000000e+00
1.811024e-01 -9.842520e-01 0.000000e+00
1.968504e-01 -9.842520e-01 0.000000e+00
2.125984e-01 -9.842520e-01 0.000000e+00
2.283465e-01 -9.842520e-01 0.000000e+00
2.440945e-01 -9.842520e-01 0.000000e+00
2.598425e-01 -9.842520e-01 0.000000e+00
2.755906e-01 -9.842520e-01 0.000000e+00
2.913386e-01 -9.842520e-01 0.000000e+00
3.070866e-01 -9.842520e-01 0.000000e+00
3.228346e-01 -9.842520e-01 0.000000e+00
3.385827e-01 -9.842520e-01 0.000000e+00
3.543307e-01 -9.842520e-01 0.000000e+00
3.700787e-01 -9.842520e-01 0.000000e+00
3.858268e-01 -9.842520e-01 0.000000e+00
4.015748e-01 -9.842520e-01 0.000000e+00
4.173228e-01 -9.842520e-01 0.000000e+00
4.330709e-01 -9.842520e-01 0.000000e+00
4.488189e-01 -9.842520e-01 0.000000e+00
4.645669e-01 -9.842520e-01 0.000000e+00
4.803150e-01 -9.842520e-01 0.000000e+00
4.960630e-01 -9.842520e-01 0.000000e+00
5.118110e-01 -9.842520e-01 0.000000e+00
5.275591e-01 -9.842520e-01 0.000000e+00
5.433071e-01 -9.842520e-01 0.000000e+00
5.590551e-01 -9.842520e-01 0.000000e+00
5.748031e-01 -9.842520e-01 0.000000e+00
5.905512e-01 -9.842520e-01 0.000000e+00
6.062992e-01 -9.842520e-01 0.000000e+00
6.220472e-01 -9.842520e-01 0.000000e+00
6.377953e-01 -9.842520e-01 0.000000e+00
6.535433e-01 -9.842520e-01 0.000000e+00
6.692913e-01 -9.842520e-01 0.000000e+00
6.850394e-01 -9.842520e-01 0.000000e+00
7.007874e-01 -9.842520e-01 0.000000e+00
7.165354e-01 -9.842520e-01 0.000000e+00
7.322835e-01 -9.842520e-01 0.000000e+00
7.480315e-01 -9.842520e-01 0.000000e+00
7.637795e-01 -9.842520e-01 0.000000e+00
7.795276e-01 -9.842520e-01 0.000000e+00
7.952756e-01 -9.842520e-01 0.000000e+00
8.110236e-01 -9.842520e-01 0.000000e+00
[...]
POINT_DATA 16384 
SCALARS concentration double 1 
LOOKUP_TABLE default 
2.715551e+00 
2.691024e+00 
2.666622e+00 
2.642346e+00 
2.618199e+00 
2.594185e+00 
2.570307e+00 
2.546568e+00 
2.522971e+00 
2.499520e+00 
2.476217e+00 
2.453068e+00 
2.430074e+00 
2.407241e+00 
2.384571e+00 
2.362069e+00 
2.339738e+00 
2.317583e+00 
2.295608e+00 
2.273818e+00 
2.252216e+00 
2.230806e+00 
2.209595e+00 
2.188586e+00 
2.167784e+00 
2.147194e+00 
2.126821e+00 
2.106670e+00 
2.086746e+00 
2.067055e+00 
2.047602e+00 
2.028393e+00 
2.009433e+00 
1.990728e+00 
1.972283e+00 
1.954105e+00 
1.936199e+00 
1.918572e+00 
1.901230e+00 
1.884179e+00 
1.867425e+00 
1.850975e+00 
1.834835e+00 
1.819011e+00 
1.803511e+00 
1.788341e+00 
1.773507e+00 
1.759016e+00 
1.744876e+00 
1.731091e+00 
1.717670e+00 
1.704619e+00 
1.691944e+00 
1.679653e+00 
1.667751e+00 
1.656245e+00 
1.645143e+00 
1.634449e+00 
1.624171e+00 
1.614314e+00 
1.604884e+00 
1.595888e+00 
1.587331e+00 
1.579218e+00 
1.571555e+00 
1.564347e+00 
1.557599e+00 
1.551315e+00 
1.545500e+00 
1.540157e+00 
1.535285e+00 
1.530868e+00 
1.526828e+00 
1.522940e+00 
1.519396e+00 
1.516293e+00 
1.513662e+00 
1.511512e+00 
1.509846e+00 
1.508664e+00 
1.507969e+00 
1.507761e+00 
1.508038e+00 
1.508801e+00 
1.510050e+00 
1.511782e+00 
1.513997e+00 
1.516693e+00 
1.519867e+00 
1.523518e+00 
1.527642e+00 
1.532237e+00 
1.537299e+00 
1.542825e+00 
1.548811e+00 
1.555253e+00 
1.562147e+00 
1.569487e+00 
1.577270e+00 
1.585490e+00 
1.594142e+00 
1.603221e+00 
1.612721e+00 
1.622638e+00 
1.632964e+00 
1.643695e+00 
1.654824e+00 
1.666346e+00 
1.678253e+00 
1.690541e+00 
1.703203e+00 
1.716232e+00 
1.729622e+00 
1.743368e+00 
1.757462e+00 
1.771898e+00 
1.786671e+00 
1.801773e+00 
1.817199e+00 
1.832942e+00 
1.848996e+00 
1.865356e+00 
1.882014e+00 
1.898964e+00 
1.916202e+00 
1.933721e+00 
1.951514e+00 
1.969577e+00 
2.695972e+00 
2.671293e+00 
2.646737e+00 
2.622306e+00 
2.598002e+00 
2.573830e+00 
2.549792e+00 
2.525892e+00 
2.502132e+00 
2.478516e+00 
2.455047e+00 
2.431730e+00 
2.408567e+00 
2.385563e+00 
2.362721e+00 
2.340045e+00 
2.317539e+00 
2.295208e+00 
2.273055e+00 
2.251085e+00 
2.229302e+00 
2.207711e+00 
2.186317e+00 
2.165123e+00 
2.144136e+00 
2.123360e+00 
2.102800e+00 
2.082461e+00 
2.062348e+00 
2.042468e+00 
2.022824e+00 
2.003424e+00 
1.984273e+00 
1.965376e+00 
1.946739e+00 
1.928369e+00 
1.910271e+00 
1.892452e+00 
1.874919e+00 
1.857676e+00 
1.840732e+00 
1.824092e+00 
1.807763e+00 
1.791752e+00 
1.776065e+00 
1.760710e+00 
1.745692e+00 
1.731020e+00 
1.716700e+00 
1.702738e+00 
1.689142e+00 
1.675919e+00 
1.663075e+00 
1.650617e+00 
1.638553e+00 
1.626888e+00 
1.615630e+00 
1.604786e+00 
1.594360e+00 
1.584361e+00 
1.574795e+00 
1.565666e+00 
1.556982e+00 
1.548748e+00 
1.540970e+00 
1.533652e+00 
1.526801e+00 
1.520420e+00 
1.514515e+00 
1.509088e+00 
1.504142e+00 
1.499661e+00 
1.495574e+00 
1.491667e+00 
1.488081e+00 
1.484934e+00 
1.482263e+00 
1.480080e+00 
1.478388e+00 
1.477189e+00 
1.476484e+00 
1.476272e+00 
1.476555e+00 
1.477331e+00 
1.478599e+00 
1.480359e+00 
1.482609e+00 
1.485348e+00 
1.488572e+00 
1.492280e+00 
1.496468e+00 
1.501134e+00 
1.506274e+00 
1.511884e+00 
1.517961e+00 
1.524499e+00 
1.531496e+00 
1.538945e+00 
1.546842e+00 
1.555182e+00 
1.563959e+00 
1.573168e+00 
1.582803e+00 
1.592859e+00 
1.603329e+00 
1.614208e+00 
1.625489e+00 
1.637166e+00 
1.649232e+00 
1.661682e+00 
1.674509e+00 
1.687706e+00 
1.701266e+00 
1.715185e+00 
1.729454e+00 
1.744068e+00 
1.759019e+00 
1.774302e+00 
1.789910e+00 
1.805836e+00 
1.822075e+00 
1.838619e+00 
1.855463e+00 
1.872601e+00 
1.890026e+00 
1.907732e+00 
1.925713e+00 
1.943964e+00 
2.676585e+00 
2.651754e+00 
2.627044e+00 
2.602457e+00 
2.577996e+00 
2.553665e+00 
2.529467e+00 
2.505404e+00 
2.481480e+00 
2.457699e+00 
2.434063e+00 
2.410577e+00 
2.387244e+00 
2.364068e+00 
2.341052e+00 
2.318202e+00 
2.295519e+00 
2.273010e+00 
2.250678e+00 
2.228527e+00 
2.206562e+00 
2.184788e+00 
2.163208e+00 
2.141829e+00 
2.120655e+00 
2.099690e+00 
2.078940e+00 
2.058411e+00 
2.038107e+00 
2.018034e+00 
1.998198e+00 
1.978605e+00 
1.959259e+00 
1.940167e+00 
1.921336e+00 
1.902771e+00 
1.884478e+00 
1.866464e+00 
1.848736e+00 
1.831299e+00 
1.814160e+00 
1.797327e+00 
1.780806e+00 
1.764603e+00 
1.748726e+00 
1.733182e+00 
1.717977e+00 
1.703119e+00 
1.688615e+00 
1.674472e+00 
1.660697e+00 
1.647297e+00 
1.634280e+00 
1.621652e+00 
1.609421e+00 
1.597594e+00 
1.586176e+00 
1.575177e+00 
1.564601e+00 
1.554456e+00 
1.544748e+00 
1.535484e+00 
1.526669e+00 
1.518310e+00 
1.510413e+00 
1.502982e+00 
1.496025e+00 
1.489544e+00 
1.483545e+00 
1.478033e+00 
1.473009e+00 
1.468460e+00 
1.464321e+00 
1.460398e+00 
1.456771e+00 
1.453578e+00 
1.450867e+00 
1.448650e+00 
1.446932e+00 
1.445714e+00 
1.444998e+00 
1.444784e+00 
1.445072e+00 
1.445861e+00 
1.447150e+00 
1.448939e+00 
1.451225e+00 
1.454007e+00 
1.457283e+00 
1.461050e+00 
1.465304e+00 
1.470043e+00 
1.475263e+00 
1.480960e+00 
1.487130e+00 
1.493769e+00 
1.500871e+00 
1.508432e+00 
1.516447e+00 
1.524910e+00 
1.533816e+00 
1.543158e+00 
1.552932e+00 
1.563131e+00 
1.573749e+00 
1.584779e+00 
1.596215e+00 
1.608051e+00 
1.620281e+00 
1.632896e+00 
1.645892e+00 
1.659261e+00 
1.672996e+00 
1.687091e+00 
1.701539e+00 
1.716334e+00 
1.731468e+00 
1.746935e+00 
1.762728e+00 
1.778841e+00 
1.795268e+00 
1.812001e+00 
1.829034e+00 
1.846362e+00 
1.863977e+00 
1.881874e+00 
1.900046e+00 
1.918488e+00 
2.657393e+00 
2.632410e+00 
2.607545e+00 
2.582802e+00 
2.558184e+00 
2.533694e+00 
2.509334e+00 
2.485108e+00 
2.461020e+00 
2.437072e+00 
2.413269e+00 
2.389613e+00 
2.366109e+00 
2.342760e+00 
2.319570e+00 
2.296543e+00 
2.273683e+00 
2.250994e+00 
2.228481e+00 
2.206148e+00 
2.184000e+00 
2.162040e+00 
2.140274e+00 
2.118707e+00 
2.097343e+00 
2.076188e+00 
2.055247e+00 
2.034525e+00 
2.014027e+00 
1.993760e+00 
1.973729e+00 
1.953939e+00 
1.934396e+00 
1.915108e+00 
1.896079e+00 
1.877315e+00 
1.858824e+00 
1.840612e+00 
1.822685e+00 
1.805051e+00 
1.787715e+00 
1.770684e+00 
1.753967e+00 
1.737569e+00 
1.721498e+00 
1.705760e+00 
1.690364e+00 
1.675317e+00 
1.660625e+00 
1.646297e+00 
1.632339e+00 
1.618758e+00 
1.605564e+00 
1.592761e+00 
1.580359e+00 
1.568364e+00 
1.556784e+00 
1.545625e+00 
1.534894e+00 
1.524599e+00 
1.514746e+00 
1.505342e+00 
1.496393e+00 
1.487906e+00 
1.479886e+00 
1.472339e+00 
1.465271e+00 
1.458688e+00 
1.452594e+00 
1.446993e+00 
1.441887e+00 
1.437267e+00 
1.433075e+00 
1.429136e+00 
1.425466e+00 
1.422227e+00 
1.419473e+00 
1.417222e+00 
1.415476e+00 
1.414240e+00 
1.413513e+00 
1.413296e+00 
1.413589e+00 
1.414392e+00 
1.415703e+00 
1.417521e+00 
1.419845e+00 
1.422672e+00 
1.426001e+00 
1.429828e+00 
1.434151e+00 
1.438965e+00 
1.444268e+00 
1.450054e+00 
1.456321e+00 
1.463062e+00 
1.470273e+00 
1.477950e+00 
1.486086e+00 
1.494675e+00 
1.503713e+00 
1.513193e+00 
1.523110e+00 
1.533455e+00 
1.544224e+00 
1.555410e+00 
1.567006e+00 
1.579006e+00 
1.591402e+00 
1.604187e+00 
1.617356e+00 
1.630901e+00 
1.644814e+00 
1.659090e+00 
1.673721e+00 
1.688700e+00 
1.704020e+00 
1.719675e+00 
1.735658e+00 
1.751961e+00 
1.768579e+00 
1.785505e+00 
1.802731e+00 
1.820252e+00 
1.838061e+00 
1.856151e+00 
1.874518e+00 
1.893153e+00 
2.638401e+00 
2.613265e+00 
2.588246e+00 
2.563346e+00 
2.538570e+00 
2.513920e+00 
2.489398e+00 
2.465009e+00 
2.440756e+00 
2.416641e+00 
2.392669e+00 
2.368843e+00 
2.345166e+00 
2.321643e+00 
2.298278e+00 
2.275073e+00 
2.252035e+00 
2.229165e+00 
2.206470e+00 
2.183953e+00 
2.161619e+00 
2.139473e+00 
2.117518e+00 
2.095761e+00 
2.074207e+00 
2.052859e+00 
2.031724e+00 
2.010807e+00 
1.990114e+00 
1.969650e+00 
1.949420e+00 
1.929432e+00 
1.909690e+00 
1.890201e+00 
1.870971e+00 
1.852007e+00 
1.833314e+00 
1.814901e+00 
1.796772e+00 
1.778936e+00 
1.761399e+00 
1.744168e+00 
1.727251e+00 
1.710653e+00 
1.694384e+00 
1.678450e+00 
1.662859e+00 
1.647617e+00 
1.632734e+00 
1.618215e+00 
1.604070e+00 
1.590305e+00 
1.576928e+00 
1.563947e+00 
1.551370e+00 
1.539203e+00 
1.527455e+00 
1.516132e+00 
1.505242e+00 
1.494793e+00 
1.484791e+00 
1.475243e+00 
1.466156e+00 
1.457536e+00 
1.449390e+00 
1.441723e+00 
1.434543e+00 
1.427853e+00 
1.421660e+00 
1.415967e+00 
1.410778e+00 
1.406085e+00 
1.401837e+00 
1.397882e+00 
1.394168e+00 
1.390881e+00 
1.388084e+00 
1.385796e+00 
1.384023e+00 
1.382766e+00 
1.382028e+00 
1.381808e+00 
1.382107e+00 
1.382923e+00 
1.384257e+00 
1.386106e+00 
1.388468e+00 
1.391343e+00 
1.394726e+00 
1.398616e+00 
1.403009e+00 
1.407901e+00 
1.413289e+00 
1.419168e+00 
1.425533e+00 
1.432381e+00 
1.439704e+00 
1.447499e+00 
1.455760e+00 
1.464480e+00 
1.473654e+00 
1.483275e+00 
1.493338e+00 
1.503835e+00 
1.514759e+00 
1.526105e+00 
1.537864e+00 
1.550031e+00 
1.562598e+00 
1.575558e+00 
1.588904e+00 
1.602628e+00 
1.616724e+00 
1.631185e+00 
1.646002e+00 
1.661170e+00 
1.676681e+00 
1.692528e+00 
1.708703e+00 
1.725201e+00 
1.742014e+00 
1.759135e+00 
1.776558e+00 
1.794275e+00 
1.812281e+00 
1.830569e+00 
1.849132e+00 
1.867965e+00 
2.619612e+00 
2.594323e+00 
2.569149e+00 
2.544093e+00 
2.519158e+00 
2.494347e+00 
2.469663e+00 
2.445110e+00 
2.420691e+00 
2.396409e+00 
2.372267e+00 
2.348270e+00 
2.324420e+00 
2.300722e+00 
2.277180e+00 
2.253797e+00 
2.230579e+00 
2.207527e+00 
2.184649e+00 
2.161946e+00 
2.139425e+00 
2.117090e+00 
2.094946e+00 
2.072998e+00 
2.051250e+00 
2.029708e+00 
2.008377e+00 
1.987263e+00 
1.966372e+00 
1.945708e+00 
1.925278e+00 
1.905088e+00 
1.885144e+00 
1.865452e+00 
1.846018e+00 
1.826850e+00 
1.807953e+00 
1.789334e+00 
1.771001e+00 
1.752960e+00 
1.735218e+00 
1.717783e+00 
1.700661e+00 
1.683861e+00 
1.667389e+00 
1.651254e+00 
1.635463e+00 
1.620024e+00 
1.604944e+00 
1.590232e+00 
1.575894e+00 
1.561940e+00 
1.548377e+00 
1.535212e+00 
1.522455e+00 
1.510112e+00 
1.498191e+00 
1.486700e+00 
1.475647e+00 
1.465039e+00 
1.454883e+00 
1.445186e+00 
1.435957e+00 
1.427200e+00 
1.418924e+00 
1.411134e+00 
1.403837e+00 
1.397037e+00 
1.390742e+00 
1.384954e+00 
1.379679e+00 
1.374909e+00 
1.370604e+00 
1.366630e+00 
1.362870e+00 
1.359532e+00 
1.356689e+00 
1.354363e+00 
1.352560e+00 
1.351283e+00 
1.350532e+00 
1.350309e+00 
1.350612e+00 
1.351442e+00 
1.352798e+00 
1.354677e+00 
1.357079e+00 
1.360001e+00 
1.363440e+00 
1.367394e+00 
1.371859e+00 
1.376831e+00 
1.382306e+00 
1.388280e+00 
1.394747e+00 
1.401703e+00 
1.409142e+00 
1.417060e+00 
1.425448e+00 
1.434303e+00 
1.443617e+00 
1.453383e+00 
1.463596e+00 
1.474248e+00 
1.485333e+00 
1.496843e+00 
1.508771e+00 
1.521110e+00 
1.533853e+00 
1.546992e+00 
1.560520e+00 
1.574429e+00 
1.588712e+00 
1.603362e+00 
1.618372e+00 
1.633733e+00 
1.649439e+00 
1.665482e+00 
1.681855e+00 
1.698551e+00 
1.715564e+00 
1.732885e+00 
1.750508e+00 
1.768426e+00 
1.786633e+00 
1.805122e+00 
1.823886e+00 
1.842919e+00 
2.601030e+00 
2.575587e+00 
2.550258e+00 
2.525045e+00 
2.499951e+00 
2.474979e+00 
2.450133e+00 
2.425415e+00 
2.400830e+00 
2.376379e+00 
2.352067e+00 
2.327898e+00 
2.303875e+00 
2.280001e+00 
2.256281e+00 
2.232719e+00 
2.209319e+00 
2.186084e+00 
2.163020e+00 
2.140132e+00 
2.117422e+00 
2.094897e+00 
2.072561e+00 
2.050419e+00 
2.028476e+00 
2.006738e+00 
1.985209e+00 
1.963896e+00 
1.942803e+00 
1.921937e+00 
1.901304e+00 
1.880910e+00 
1.860760e+00 
1.840862e+00 
1.821222e+00 
1.801845e+00 
1.782740e+00 
1.763913e+00 
1.745371e+00 
1.727121e+00 
1.709170e+00 
1.691526e+00 
1.674197e+00 
1.657189e+00 
1.640511e+00 
1.624170e+00 
1.608174e+00 
1.592531e+00 
1.577250e+00 
1.562338e+00 
1.547804e+00 
1.533655e+00 
1.519899e+00 
1.506546e+00 
1.493602e+00 
1.481077e+00 
1.468978e+00 
1.457314e+00 
1.446091e+00 
1.435318e+00 
1.425003e+00 
1.415153e+00 
1.405775e+00 
1.396877e+00 
1.388465e+00 
1.380546e+00 
1.373127e+00 
1.366213e+00 
1.359811e+00 
1.353925e+00 
1.348559e+00 
1.343709e+00 
1.339342e+00 
1.335331e+00 
1.331515e+00 
1.328119e+00 
1.325224e+00 
1.322854e+00 
1.321015e+00 
1.319711e+00 
1.318942e+00 
1.318710e+00 
1.319013e+00 
1.319852e+00 
1.321225e+00 
1.323131e+00 
1.325569e+00 
1.328535e+00 
1.332027e+00 
1.336043e+00 
1.340578e+00 
1.345628e+00 
1.351190e+00 
1.357258e+00 
1.363828e+00 
1.370894e+00 
1.378451e+00 
1.386492e+00 
1.395012e+00 
1.404004e+00 
1.413462e+00 
1.423378e+00 
1.433746e+00 
1.444559e+00 
1.455810e+00 
1.467490e+00 
1.479594e+00 
1.492112e+00 
1.505038e+00 
1.518363e+00 
1.532081e+00 
1.546183e+00 
1.560662e+00 
1.575510e+00 
1.590719e+00 
1.606282e+00 
1.622191e+00 
1.638440e+00 
1.655019e+00 
1.671922e+00 
1.689142e+00 
1.706671e+00 
1.724503e+00 
1.742630e+00 
1.761045e+00 
1.779742e+00 
1.798715e+00 
1.817955e+00 
2.582655e+00 
2.557059e+00 
2.531574e+00 
2.506204e+00 
2.480950e+00 
2.455818e+00 
2.430808e+00 
2.405925e+00 
2.381172e+00 
2.356553e+00 
2.332070e+00 
2.307727e+00 
2.283529e+00 
2.259478e+00 
2.235579e+00 
2.211836e+00 
2.188253e+00 
2.164834e+00 
2.141583e+00 
2.118505e+00 
2.095605e+00 
2.072888e+00 
2.050358e+00 
2.028019e+00 
2.005879e+00 
1.983941e+00 
1.962211e+00 
1.940695e+00 
1.919398e+00 
1.898327e+00 
1.877487e+00 
1.856884e+00 
1.836525e+00 
1.816416e+00 
1.796564e+00 
1.776975e+00 
1.757656e+00 
1.738615e+00 
1.719858e+00 
1.701393e+00 
1.683228e+00 
1.665369e+00 
1.647824e+00 
1.630602e+00 
1.613709e+00 
1.597155e+00 
1.580947e+00 
1.565093e+00 
1.549603e+00 
1.534483e+00 
1.519742e+00 
1.505390e+00 
1.491434e+00 
1.477882e+00 
1.464744e+00 
1.452027e+00 
1.439741e+00 
1.427893e+00 
1.416492e+00 
1.405545e+00 
1.395062e+00 
1.385048e+00 
1.375514e+00 
1.366465e+00 
1.357909e+00 
1.349854e+00 
1.342305e+00 
1.335269e+00 
1.328753e+00 
1.322762e+00 
1.317299e+00 
1.312360e+00 
1.307916e+00 
1.303820e+00 
1.299925e+00 
1.296455e+00 
1.293492e+00 
1.291063e+00 
1.289174e+00 
1.287828e+00 
1.287027e+00 
1.286771e+00 
1.287061e+00 
1.287896e+00 
1.289274e+00 
1.291196e+00 
1.293658e+00 
1.296659e+00 
1.300196e+00 
1.304265e+00 
1.308862e+00 
1.313985e+00 
1.319628e+00 
1.325786e+00 
1.332455e+00 
1.339628e+00 
1.347300e+00 
1.355466e+00 
1.364117e+00 
1.373248e+00 
1.382852e+00 
1.392922e+00 
1.403450e+00 
1.414429e+00 
1.425852e+00 
1.437710e+00 
1.449996e+00 
1.462702e+00 
1.475820e+00 
1.489343e+00 
1.503261e+00 
1.517567e+00 
1.532254e+00 
1.547312e+00 
1.562734e+00 
1.578513e+00 
1.594639e+00 
1.611106e+00 
1.627906e+00 
1.645031e+00 
1.662473e+00 
1.680225e+00 
1.698280e+00 
1.716631e+00 
1.735269e+00 
1.754190e+00 
1.773384e+00 
1.792847e+00 
2.564478e+00 
2.538727e+00 
2.513085e+00 
2.487556e+00 
2.462142e+00 
2.436847e+00 
2.411672e+00 
2.386622e+00 
2.361700e+00 
2.336909e+00 
2.312253e+00 
2.287735e+00 
2.263359e+00 
2.239128e+00 
2.215048e+00 
2.191120e+00 
2.167351e+00 
2.143743e+00 
2.120302e+00 
2.097031e+00 
2.073936e+00 
2.051022e+00 
2.028292e+00 
2.005753e+00 
1.983409e+00 
1.961266e+00 
1.939329e+00 
1.917603e+00 
1.896096e+00 
1.874812e+00 
1.853757e+00 
1.832938e+00 
1.812361e+00 
1.792033e+00 
1.771960e+00 
1.752149e+00 
1.732608e+00 
1.713343e+00 
1.694361e+00 
1.675670e+00 
1.657278e+00 
1.639193e+00 
1.621421e+00 
1.603972e+00 
1.586853e+00 
1.570073e+00 
1.553639e+00 
1.537562e+00 
1.521848e+00 
1.506506e+00 
1.491546e+00 
1.476976e+00 
1.462805e+00 
1.449041e+00 
1.435694e+00 
1.422772e+00 
1.410284e+00 
1.398238e+00 
1.386645e+00 
1.375511e+00 
1.364845e+00 
1.354656e+00 
1.344952e+00 
1.335740e+00 
1.327028e+00 
1.318824e+00 
1.311135e+00 
1.303968e+00 
1.297328e+00 
1.291222e+00 
1.285651e+00 
1.280611e+00 
1.276061e+00 
1.271821e+00 
1.267819e+00 
1.264255e+00 
1.261206e+00 
1.258699e+00 
1.256741e+00 
1.255337e+00 
1.254487e+00 
1.254193e+00 
1.254454e+00 
1.255271e+00 
1.256643e+00 
1.258567e+00 
1.261043e+00 
1.264068e+00 
1.267639e+00 
1.271752e+00 
1.276405e+00 
1.281592e+00 
1.287309e+00 
1.293552e+00 
1.300314e+00 
1.307590e+00 
1.315375e+00 
1.323660e+00 
1.332441e+00 
1.341709e+00 
1.351458e+00 
1.361681e+00 
1.372369e+00 
1.383515e+00 
1.395111e+00 
1.407149e+00 
1.419621e+00 
1.432519e+00 
1.445834e+00 
1.459558e+00 
1.473683e+00 
1.488201e+00 
1.503102e+00 
1.518379e+00 
1.534023e+00 
1.550026e+00 
1.566380e+00 
1.583077e+00 
1.600109e+00 
1.617468e+00 
1.635145e+00 
1.653134e+00 
1.671427e+00 
1.690015e+00 
1.708893e+00 
1.728052e+00 
1.747485e+00 
1.767187e+00 
2.546437e+00 
2.520528e+00 
2.494726e+00 
2.469034e+00 
2.443455e+00 
2.417992e+00 
2.392648e+00 
2.367426e+00 
2.342330e+00 
2.317362e+00 
2.292527e+00 
2.267827e+00 
2.243267e+00 
2.218850e+00 
2.194580e+00 
2.170461e+00 
2.146497e+00 
2.122693e+00 
2.099053e+00 
2.075581e+00 
2.052282e+00 
2.029161e+00 
2.006223e+00 
1.983472e+00 
1.960915e+00 
1.938556e+00 
1.916400e+00 
1.894454e+00 
1.872724e+00 
1.851214e+00 
1.829933e+00 
1.808885e+00 
1.788077e+00 
1.767516e+00 
1.747208e+00 
1.727162e+00 
1.707383e+00 
1.687879e+00 
1.668657e+00 
1.649726e+00 
1.631092e+00 
1.612765e+00 
1.594751e+00 
1.577060e+00 
1.559699e+00 
1.542677e+00 
1.526003e+00 
1.509685e+00 
1.493732e+00 
1.478154e+00 
1.462959e+00 
1.448157e+00 
1.433756e+00 
1.419765e+00 
1.406195e+00 
1.393054e+00 
1.380351e+00 
1.368096e+00 
1.356297e+00 
1.344964e+00 
1.334105e+00 
1.323729e+00 
1.313845e+00 
1.304461e+00 
1.295584e+00 
1.287223e+00 
1.279385e+00 
1.272078e+00 
1.265308e+00 
1.259079e+00 
1.253393e+00 
1.248239e+00 
1.243566e+00 
1.239179e+00 
1.235069e+00 
1.231409e+00 
1.228270e+00 
1.225682e+00 
1.223652e+00 
1.222187e+00 
1.221286e+00 
1.220952e+00 
1.221185e+00 
1.221984e+00 
1.223349e+00 
1.225277e+00 
1.227768e+00 
1.230817e+00 
1.234424e+00 
1.238583e+00 
1.243291e+00 
1.248544e+00 
1.254336e+00 
1.260663e+00 
1.267518e+00 
1.274896e+00 
1.282791e+00 
1.291195e+00 
1.300102e+00 
1.309504e+00 
1.319394e+00 
1.329764e+00 
1.340607e+00 
1.351915e+00 
1.363678e+00 
1.375890e+00 
1.388540e+00 
1.401622e+00 
1.415127e+00 
1.429045e+00 
1.443368e+00 
1.458088e+00 
1.473196e+00 
1.488683e+00 
1.504541e+00 
1.520762e+00 
1.537336e+00 
1.554256e+00 
1.571514e+00 
1.589100e+00 
1.607008e+00 
1.625229e+00 
1.643755e+00 
1.662579e+00 
1.681693e+00 
1.701089e+00 
1.720761e+00 
1.740701e+00 
2.528356e+00 
2.502280e+00 
2.476310e+00 
2.450447e+00 
2.424695e+00 
2.399056e+00 
2.373533e+00 
2.348130e+00 
2.322850e+00 
2.297696e+00 
2.272672e+00 
2.247780e+00 
2.223026e+00 
2.198412e+00 
2.173942e+00 
2.149621e+00 
2.125453e+00 
2.101441e+00 
2.077591e+00 
2.053906e+00 
2.030392e+00 
2.007053e+00 
1.983894e+00 
1.960920e+00 
1.938137e+00 
1.915550e+00 
1.893164e+00 
1.870986e+00 
1.849021e+00 
1.827275e+00 
1.805754e+00 
1.784466e+00 
1.763416e+00 
1.742611e+00 
1.722059e+00 
1.701765e+00 
1.681739e+00 
1.661986e+00 
1.642515e+00 
1.623334e+00 
1.604451e+00 
1.585873e+00 
1.567609e+00 
1.549668e+00 
1.532058e+00 
1.514788e+00 
1.497867e+00 
1.481304e+00 
1.465108e+00 
1.449289e+00 
1.433856e+00 
1.418818e+00 
1.404185e+00 
1.389966e+00 
1.376171e+00 
1.362810e+00 
1.349891e+00 
1.337426e+00 
1.325422e+00 
1.313890e+00 
1.302839e+00 
1.292277e+00 
1.282214e+00 
1.272658e+00 
1.263618e+00 
1.255101e+00 
1.247117e+00 
1.239671e+00 
1.232772e+00 
1.226422e+00 
1.220622e+00 
1.215359e+00 
1.210580e+00 
1.206131e+00 
1.201962e+00 
1.198234e+00 
1.195026e+00 
1.192374e+00 
1.190292e+00 
1.188783e+00 
1.187851e+00 
1.187496e+00 
1.187718e+00 
1.188517e+00 
1.189892e+00 
1.191842e+00 
1.194363e+00 
1.197453e+00 
1.201110e+00 
1.205328e+00 
1.210105e+00 
1.215434e+00 
1.221312e+00 
1.227732e+00 
1.234688e+00 
1.242174e+00 
1.250184e+00 
1.258709e+00 
1.267744e+00 
1.277280e+00 
1.287310e+00 
1.297826e+00 
1.308819e+00 
1.320281e+00 
1.332204e+00 
1.344580e+00 
1.357398e+00 
1.370652e+00 
1.384331e+00 
1.398428e+00 
1.412933e+00 
1.427838e+00 
1.443134e+00 
1.458811e+00 
1.474862e+00 
1.491278e+00 
1.508050e+00 
1.525170e+00 
1.542629e+00 
1.560419e+00 
1.578531e+00 
1.596959e+00 
1.615693e+00 
1.634726e+00 
1.654050e+00 
1.673658e+00 
1.693543e+00 
1.713696e+00 
2.509937e+00 
2.483689e+00 
2.457543e+00 
2.431502e+00 
2.405569e+00 
2.379747e+00 
2.354039e+00 
2.328449e+00 
2.302979e+00 
2.277632e+00 
2.252413e+00 
2.227324e+00 
2.202370e+00 
2.177554e+00 
2.152880e+00 