# vtk DataFile Version 2.0 
Quadtree Mesh 
ASCII 
DATASET UNSTRUCTURED_GRID 
POINTS 4096 double 
-1.000000e+00 -1.000000e+00 0.000000e+00
-9.682540e-01 -1.000000e+00 0.000000e+00
-9.365079e-01 -1.000000e+00 0.000000e+00
-9.047619e-01 -1.000000e+00 0.000000e+00
-8.730159e-01 -1.000000e+00 0.000000e+00
-8.412698e-01 -1.000000e+00 0.000000e+00
-8.095238e-01 -1.000000e+00 0.000000e+00
-7.777778e-01 -1.000000e+00 0.000000e+00
-7.460317e-01 -1.000000e+00 0.000000e+00
-7.142857e-01 -1.000000e+00 0.000000e+00
-6.825397e-01 -1.000000e+00 0.000000e+00
-6.507937e-01 -1.000000e+00 0.000000e+00
-6.190476e-01 -1.000000e+00 0.000000e+00
-5.873016e-01 -1.000000e+00 0.000000e+00
-5.555556e-01 -1.000000e+00 0.000000e+00
-5.238095e-01 -1.000000e+00 0.000000e+00
-4.920635e-01 -1.000000e+00 0.000000e+00
-4.603175e-01 -1.000000e+00 0.000000e+00
-4.285714e-01 -1.000000e+00 0.000000e+00
-3.968254e-01 -1.000000e+00 0.000000e+00
-3.650794e-01 -1.000000e+00 0.000000e+00
-3.333333e-01 -1.000000e+00 0.000000e+00
-3.015873e-01 -1.000000e+00 0.000000e+00
-2.698413e-01 -1.000000e+00 0.000000e+00
-2.380952e-01 -1.000000e+00 0.000000e+00
-2.063492e-01 -1.000000e+00 0.000000e+00
-1.746032e-01 -1.000000e+00 0.000000e+00
-1.428571e-01 -1.000000e+00 0.000000e+00
-1.111111e-01 -1.000000e+00 0.000000e+00
-7.936508e-02 -1.000000e+00 0.000000e+00
-4.761905e-02 -1.000000e+00 0.000000e+00
-1.587302e-02 -1.000000e+00 0.000000e+00
1.587302e-02 -1.000000e+00 0.000000e+00
4.761905e-02 -1.000000e+00 0.000000e+00
7.936508e-02 -1.000000e+00 0.000000e+00
1.111111e-01 -1.000000e+00 0.000000e+00
1.428571e-01 -1.000000e+00 0.000000e+00
1.746032e-01 -1.000000e+00 0.000000e+00
2.063492e-01 -1.000000e+00 0.000000e+00
2.380952e-01 -1.000000e+00 0.000000e+00
2.698413e-01 -1.000000e+00 0.000000e+00
3.015873e-01 -1.000000e+00 0.000000e+00
3.333333e-01 -1.000000e+00 0.000000e+00
3.650794e-01 -1.000000e+00 0.000000e+00
3.968254e-01 -1.000000e+00 0.000000e+00
4.285714e-01 -1.000000e+00 0.000000e+00
4.603175e-01 -1.000000e+00 0.000000e+00
4.920635e-01 -1.000000e+00 0.000000e+00
5.238095e-01 -1.000000e+00 0.000000e+00
5.555556e-01 -1.000000e+00 0.000000e+00
5.873016e-01 -1.000000e+00 0.000000e+00
6.190476e-01 -1.000000e+00 0.000000e+00
6.507937e-01 -1.000000e+00 0.000000e+00
6.825397e-01 -1.000000e+00 0.000000e+00
7.142857e-01 -1.000000e+00 0.000000e+00
7.460317e-01 -1.000000e+00 0.000000e+00
7.777778e-01 -1.000000e+00 0.000000e+00
8.095238e-01 -1.000000e+00 0.000000e+00
8.412698e-01 -1.000000e+00 0.000000e+00
8.730159e-01 -1.000000e+00 0.000000e+00
9.047619e-01 -1.000000e+00 0.000000e+00
9.365079e-01 -1.000000e+00 0.000000e+00
9.682540e-01 -1.000000e+00 0.000000e+00
1.000000e+00 -1.000000e+00 0.000000e+00
-1.000000e+00 -9.682540e-01 0.000000e+00
-9.682540e-01 -9.682540e-01 0.000000e+00
-9.365079e-01 -9.682540e-01 0.000000e+00
-9.047619e-01 -9.682540e-01 0.000000e+00
-8.730159e-01 -9.682540e-01 0.000000e+00
-8.412698e-01 -9.682540e-01 0.000000e+00
-8.095238e-01 -9.682540e-01 0.000000e+00
-7.777778e-01 -9.682540e-01 0.000000e+00
-7.460317e-01 -9.682540e-01 0.000000e+00
-7.142857e-01 -9.682540e-01 0.000000e+00
-6.825397e-01 -9.682540e-01 0.000000e+00
-6.507937e-01 -9.682540e-01 0.000000e+00
-6.190476e-01 -9.682540e-01 0.000000e+00
-5.873016e-01 -9.682540e-01 0.000000e+00
-5.555556e-01 -9.682540e-01 0.000000e+00
-5.238095e-01 -9.682540e-01 0.000000e+00
-4.920635e-01 -9.682540e-01 0.000000e+00
-4.603175e-01 -9.682540e-01 0.000000e+00
-4.285714e-01 -9.682540e-01 0.000000e+00
-3.968254e-01 -9.682540e-01 0.000000e+00
-3.650794e-01 -9.682540e-01 0.000000e+00
-3.333333e-01 -9.682540e-01 0.000000e+00
-3.015873e-01 -9.682540e-01 0.000000e+00
-2.698413e-01 -9.682540e-01 0.000000e+00
-2.380952e-01 -9.682540e-01 0.000000e+00
-2.063492e-01 -9.682540e-01 0.000000e+00
-1.746032e-01 -9.682540e-01 0.000000e+00
-1.428571e-01 -9.682540e-01 0.000000e+00
-1.111111e-01 -9.682540e-01 0.000000e+00
-7.936508e-02 -9.682540e-01 0.000000e+00
-4.761905e-02 -9.682540e-01 0.000000e+00
-1.587302e-02 -9.682540e-01 0.000000e+00
1.587302e-02 -9.682540e-01 0.000000e+00
4.761905e-02 -9.682540e-01 0.000000e+00
7.936508e-02 -9.682540e-01 0.000000e+00
1.111111e-01 -9.682540e-01 0.000000e+00
1.428571e-01 -9.682540e-01 0.000000e+00
1.746032e-01 -9.682540e-01 0.000000e+00
2.063492e-01 -9.682540e-01 0.000000e+00
2.380952e-01 -9.682540e-01 0.000000e+00
2.698413e-01 -9.682540e-01 0.000000e+00
3.015873e-01 -9.682540e-01 0.000000e+00
3.333333e-01 -9.682540e-01 0.000000e+00
3.650794e-01 -9.682540e-01 0.000000e+00
3.968254e-01 -9.682540e-01 0.000000e+00
4.285714e-01 -9.682540e-01 0.000000e+00
4.603175e-01 -9.682540e-01 0.000000e+00
4.920635e-01 -9.682540e-01 0.000000e+00
5.238095e-01 -9.682540e-01 0.000000e+00
5.555556e-01 -9.682540e-01 0.000000e+00
5.873016e-01 -9.682540e-01 0.000000e+00
6.190476e-01 -9.682540e-01 0.000000e+00
6.507937e-01 -9.682540e-01 0.000000e+00
6.825397e-01 -9.682540e-01 0.000000e+00
7.142857e-01 -9.682540e-01 0.000000e+00
7.460317e-01 -9.682540e-01 0.000000e+00
7.777778e-01 -9.682540e-01 0.000000e+00
8.095238e-01 -9.682540e-01 0.000000e+00
8.412698e-01 -9.682540e-01 0.000000e+00
8.730159e-01 -9.682540e-01 0.000000e+00
9.047619e-01 -9.682540e-01 0.000000e+00
9.365079e-01 -9.682540e-01 0.000000e+00
9.682540e-01 -9.682540e-01 0.000000e+00
1.000000e+00 -9.682540e-01 0.000000e+00
-1.000000e+00 -9.365079e-01 0.000000e+00
-9.682540e-01 -9.365079e-01 0.000000e+00
-9.365079e-01 -9.365079e-01 0.000000e+00
-9.047619e-01 -9.365079e-01 0.000000e+00
-8.730159e-01 -9.365079e-01 0.000000e+00
-8.412698e-01 -9.365079e-01 0.000000e+00
-8.095238e-01 -9.365079e-01 0.000000e+00
-7.777778e-01 -9.365079e-01 0.000000e+00
-7.460317e-01 -9.365079e-01 0.000000e+00
-7.142857e-01 -9.365079e-01 0.000000e+00
-6.825397e-01 -9.365079e-01 0.000000e+00
-6.507937e-01 -9.365079e-01 0.000000e+00
-6.190476e-01 -9.365079e-01 0.000000e+00
-5.873016e-01 -9.365079e-01 0.000000e+00
-5.555556e-01 -9.365079e-01 0.000000e+00
-5.238095e-01 -9.365079e-01 0.000000e+00
-4.920635e-01 -9.365079e-01 0.000000e+00
-4.603175e-01 -9.365079e-01 0.000000e+00
-4.285714e-01 -9.365079e-01 0.000000e+00
-3.968254e-01 -9.365079e-01 0.000000e+00
-3.650794e-01 -9.365079e-01 0.000000e+00
-3.333333e-01 -9.365079e-01 0.000000e+00
-3.015873e-01 -9.365079e-01 0.000000e+00
-2.698413e-01 -9.365079e-01 0.000000e+00
-2.380952e-01 -9.365079e-01 0.000000e+00
-2.063492e-01 -9.365079e-01 0.000000e+00
-1.746032e-01 -9.365079e-01 0.000000e+00
-1.428571e-01 -9.365079e-01 0.000000e+00
-1.111111e-01 -9.365079e-01 0.000000e+00
-7.936508e-02 -9.365079e-01 0.000000e+00
-4.761905e-02 -9.365079e-01 0.000000e+00
-1.587302e-02 -9.365079e-01 0.000000e+00
1.587302e-02 -9.365079e-01 0.000000e+00
4.761905e-02 -9.365079e-01 0.000000e+00
7.936508e-02 -9.365079e-01 0.000000e+00
1.111111e-01 -9.365079e-01 0.000000e+00
1.428571e-01 -9.365079e-01 0.000000e+00
1.746032e-01 -9.365079e-01 0.000000e+00
2.063492e-01 -9.365079e-01 0.000000e+00
2.380952e-01 -9.365079e-01 0.000000e+00
2.698413e-01 -9.365079e-01 0.000000e+00
3.015873e-01 -9.365079e-01 0.000000e+00
3.333333e-01 -9.365079e-01 0.000000e+00
3.650794e-01 -9.365079e-01 0.000000e+00
3.968254e-01 -9.365079e-01 0.000000e+00
4.285714e-01 -9.365079e-01 0.000000e+00
4.603175e-01 -9.365079e-01 0.000000e+00
4.920635e-01 -9.365079e-01 0.000000e+00
5.238095e-01 -9.365079e-01 0.000000e+00
5.555556e-01 -9.365079e-01 0.000000e+00
5.873016e-01 -9.365079e-01 0.000000e+00
6.190476e-01 -9.365079e-01 0.000000e+00
6.507937e-01 -9.365079e-01 0.000000e+00
6.825397e-01 -9.365079e-01 0.000000e+00
7.142857e-01 -9.365079e-01 0.000000e+00
7.460317e-01 -9.365079e-01 0.000000e+00
7.777778e-01 -9.365079e-01 0.000000e+00
8.095238e-01 -9.365079e-01 0.000000e+00
8.412698e-01 -9.365079e-01 0.000000e+00
8.730159e-01 -9.365079e-01 0.000000e+00
9.047619e-01 -9.365079e-01 0.000000e+00
9.365079e-01 -9.365079e-01 0.000000e+00
9.682540e-01 -9.365079e-01 0.000000e+00
1.000000e+00 -9.365079e-01 0.000000e+00
-1.000000e+00 -9.047619e-01 0.000000e+00
-9.682540e-01 -9.047619e-01 0.000000e+00
-9.365079e-01 -9.047619e-01 0.000000e+00
-9.047619e-01 -9.047619e-01 0.000000e+00
-8.730159e-01 -9.047619e-01 0.000000e+00
-8.412698e-01 -9.047619e-01 0.000000e+00
-8.095238e-01 -9.047619e-01 0.000000e+00
-7.777778e-01 -9.047619e-01 0.000000e+00
-7.460317e-01 -9.047619e-01 0.000000e+00
-7.142857e-01 -9.047619e-01 0.000000e+00
-6.825397e-01 -9.047619e-01 0.000000e+00
-6.507937e-01 -9.047619e-01 0.000000e+00
-6.190476e-01 -9.047619e-01 0.000000e+00
-5.873016e-01 -9.047619e-01 0.000000e+00
-5.555556e-01 -9.047619e-01 0.000000e+00
-5.238095e-01 -9.047619e-01 0.000000e+00
-4.920635e-01 -9.047619e-01 0.000000e+00
-4.603175e-01 -9.047619e-01 0.000000e+00
-4.285714e-01 -9.047619e-01 0.000000e+00
-3.968254e-01 -9.047619e-01 0.000000e+00
-3.650794e-01 -9.047619e-01 0.000000e+00
-3.333333e-01 -9.047619e-01 0.000000e+00
-3.015873e-01 -9.047619e-01 0.000000e+00
-2.698413e-01 -9.047619e-01 0.000000e+00
-2.380952e-01 -9.047619e-01 0.000000e+00
-2.063492e-01 -9.047619e-01 0.000000e+00
-1.746032e-01 -9.047619e-01 0.000000e+00
-1.428571e-01 -9.047619e-01 0.000000e+00
-1.111111e-01 -9.047619e-01 0.000000e+00
-7.936508e-02 -9.047619e-01 0.000000e+00
-4.761905e-02 -9.047619e-01 0.000000e+00
-1.587302e-02 -9.047619e-01 0.000000e+00
1.587302e-02 -9.047619e-01 0.000000e+00
4.761905e-02 -9.047619e-01 0.000000e+00
7.936508e-02 -9.047619e-01 0.000000e+00
1.111111e-01 -9.047619e-01 0.000000e+00
1.428571e-01 -9.047619e-01 0.000000e+00
1.746032e-01 -9.047619e-01 0.000000e+00
2.063492e-01 -9.047619e-01 0.000000e+00
2.380952e-01 -9.047619e-01 0.000000e+00
2.698413e-01 -9.047619e-01 0.000000e+00
3.015873e-01 -9.047619e-01 0.000000e+00
3.333333e-01 -9.047619e-01 0.000000e+00
3.650794e-01 -9.047619e-01 0.000000e+00
3.968254e-01 -9.047619e-01 0.000000e+00
4.285714e-01 -9.047619e-01 0.000000e+00
4.603175e-01 -9.047619e-01 0.000000e+00
4.920635e-01 -9.047619e-01 0.000000e+00
5.238095e-01 -9.047619e-01 0.000000e+00
5.555556e-01 -9.047619e-01 0.000000e+00
5.873016e-01 -9.047619e-01 0.000000e+00
6.190476e-01 -9.047619e-01 0.000000e+00
[...]
POINT_DATA 4096 
SCALARS concentration double 1 
LOOKUP_TABLE default 
1.149985e+00 
1.131478e+00 
1.113478e+00 
1.095988e+00 
1.079025e+00 
1.062612e+00 
1.046769e+00 
1.031520e+00 
1.016890e+00 
1.002901e+00 
9.895775e-01 
9.769451e-01 
9.650287e-01 
9.538544e-01 
9.434474e-01 
9.338319e-01 
9.250317e-01 
9.170697e-01 
9.099675e-01 
9.037456e-01 
8.984227e-01 
8.940156e-01 
8.905387e-01 
8.880029e-01 
8.864095e-01 
8.856993e-01 
8.867607e-01 
8.891746e-01 
8.927461e-01 
8.973775e-01 
9.030081e-01 
9.095944e-01 
9.170988e-01 
9.254880e-01 
9.347333e-01 
9.448073e-01 
9.556833e-01 
9.673345e-01 
9.797345e-01 
9.928567e-01 
1.006675e+00 
1.021164e+00 
1.036297e+00 
1.052051e+00 
1.068401e+00 
1.085323e+00 
1.102795e+00 
1.120793e+00 
1.139296e+00 
1.158283e+00 
1.177735e+00 
1.197631e+00 
1.217952e+00 
1.238681e+00 
1.259801e+00 
1.281294e+00 
1.303146e+00 
1.325340e+00 
1.347862e+00 
1.370699e+00 
1.393837e+00 
1.417263e+00 
1.440965e+00 
1.464932e+00 
1.124202e+00 
1.105349e+00 
1.087001e+00 
1.069163e+00 
1.051854e+00 
1.035096e+00 
1.018912e+00 
1.003327e+00 
9.883658e-01 
9.740530e-01 
9.604144e-01 
9.474763e-01 
9.352660e-01 
9.238112e-01 
9.131384e-01 
9.032737e-01 
8.942424e-01 
8.860691e-01 
8.787774e-01 
8.723892e-01 
8.669247e-01 
8.624022e-01 
8.588369e-01 
8.562404e-01 
8.546115e-01 
8.539268e-01 
8.550866e-01 
8.576140e-01 
8.613167e-01 
8.660991e-01 
8.719016e-01 
8.786806e-01 
8.863978e-01 
8.950187e-01 
9.045136e-01 
9.148539e-01 
9.260112e-01 
9.379572e-01 
9.506640e-01 
9.641033e-01 
9.782477e-01 
9.930698e-01 
1.008543e+00 
1.024641e+00 
1.041339e+00 
1.058611e+00 
1.076434e+00 
1.094785e+00 
1.113640e+00 
1.132979e+00 
1.152780e+00 
1.173023e+00 
1.193690e+00 
1.214760e+00 
1.236218e+00 
1.258046e+00 
1.280227e+00 
1.302747e+00 
1.325591e+00 
1.348744e+00 
1.372193e+00 
1.395925e+00 
1.419929e+00 
1.444191e+00 
1.098675e+00 
1.079465e+00 
1.060758e+00 
1.042562e+00 
1.024895e+00 
1.007780e+00 
9.912437e-01 
9.753096e-01 
9.600043e-01 
9.453542e-01 
9.313865e-01 
9.181292e-01 
9.056115e-01 
8.938627e-01 
8.829109e-01 
8.727840e-01 
8.635095e-01 
8.551137e-01 
8.476220e-01 
8.410581e-01 
8.354441e-01 
8.307996e-01 
8.271410e-01 
8.244804e-01 
8.228144e-01 
8.221600e-01 
8.234213e-01 
8.260650e-01 
8.299035e-01 
8.348432e-01 
8.408254e-01 
8.478065e-01 
8.557474e-01 
8.646123e-01 
8.743701e-01 
8.849904e-01 
8.964431e-01 
9.086982e-01 
9.217259e-01 
9.354966e-01 
9.499811e-01 
9.651504e-01 
9.809764e-01 
9.974317e-01 
1.014490e+00 
1.032124e+00 
1.050310e+00 
1.069024e+00 
1.088241e+00 
1.107940e+00 
1.128100e+00 
1.148699e+00 
1.169717e+00 
1.191136e+00 
1.212938e+00 
1.235106e+00 
1.257622e+00 
1.280472e+00 
1.303641e+00 
1.327113e+00 
1.350876e+00 
1.374917e+00 
1.399223e+00 
1.423783e+00 
1.073419e+00 
1.053842e+00 
1.034766e+00 
1.016199e+00 
9.981627e-01 
9.806801e-01 
9.637773e-01 
9.474807e-01 
9.318176e-01 
9.168162e-01 
9.025051e-01 
8.889141e-01 
8.760745e-01 
8.640171e-01 
8.527721e-01 
8.423694e-01 
8.328384e-01 
8.242077e-01 
8.165047e-01 
8.097552e-01 
8.039829e-01 
7.992091e-01 
7.954518e-01 
7.927235e-01 
7.910187e-01 
7.904001e-01 
7.917653e-01 
7.945285e-01 
7.985075e-01 
8.036113e-01 
8.097821e-01 
8.169755e-01 
8.251515e-01 
8.342730e-01 
8.443071e-01 
8.552214e-01 
8.669839e-01 
8.795627e-01 
8.929260e-01 
9.070424e-01 
9.218809e-01 
9.374113e-01 
9.536037e-01 
9.704292e-01 
9.878597e-01 
1.005868e+00 
1.024429e+00 
1.043516e+00 
1.063106e+00 
1.083175e+00 
1.103702e+00 
1.124664e+00 
1.146043e+00 
1.167817e+00 
1.189970e+00 
1.212483e+00 
1.235339e+00 
1.258524e+00 
1.282021e+00 
1.305817e+00 
1.329897e+00 
1.354249e+00 
1.378860e+00 
1.403719e+00 
1.048451e+00 
1.028496e+00 
1.009041e+00 
9.900928e-01 
9.716740e-01 
9.538101e-01 
9.365277e-01 
9.198545e-01 
9.038193e-01 
8.884515e-01 
8.737817e-01 
8.598417e-01 
8.466647e-01 
8.342832e-01 
8.227297e-01 
8.120363e-01 
8.022346e-01 
7.933556e-01 
7.854290e-01 
7.784827e-01 
7.725426e-01 
7.676318e-01 
7.637698e-01 
7.609697e-01 
7.592244e-01 
7.586478e-01 
7.601189e-01 
7.630046e-01 
7.671295e-01 
7.724053e-01 
7.787742e-01 
7.861913e-01 
7.946151e-01 
8.040068e-01 
8.143316e-01 
8.255550e-01 
8.376426e-01 
8.505606e-01 
8.642749e-01 
8.787522e-01 
8.939598e-01 
9.098656e-01 
9.264383e-01 
9.436474e-01 
9.614636e-01 
9.798586e-01 
9.988052e-01 
1.018277e+00 
1.038250e+00 
1.058698e+00 
1.079601e+00 
1.100935e+00 
1.122681e+00 
1.144817e+00 
1.167327e+00 
1.190191e+00 
1.213393e+00 
1.236916e+00 
1.260746e+00 
1.284868e+00 
1.309269e+00 
1.333934e+00 
1.358853e+00 
1.384014e+00 
1.023787e+00 
1.003443e+00 
9.835970e-01 
9.642555e-01 
9.454423e-01 
9.271837e-01 
9.095078e-01 
8.924434e-01 
8.760207e-01 
8.602709e-01 
8.452264e-01 
8.309212e-01 
8.173902e-01 
8.046682e-01 
7.927898e-01 
7.817897e-01 
7.717021e-01 
7.625605e-01 
7.543969e-01 
7.472419e-01 
7.411237e-01 
7.360674e-01 
7.320943e-01 
7.292183e-01 
7.274308e-01 
7.269036e-01 
7.284814e-01 
7.314932e-01 
7.357705e-01 
7.412268e-01 
7.478047e-01 
7.554580e-01 
7.641435e-01 
7.738204e-01 
7.844516e-01 
7.960002e-01 
8.084295e-01 
8.217031e-01 
8.357849e-01 
8.506394e-01 
8.662318e-01 
8.825282e-01 
8.994957e-01 
9.171024e-01 
9.353174e-01 
9.541114e-01 
9.734557e-01 
9.933235e-01 
1.013689e+00 
1.034527e+00 
1.055814e+00 
1.077528e+00 
1.099648e+00 
1.122154e+00 
1.145026e+00 
1.168246e+00 
1.191798e+00 
1.215665e+00 
1.239831e+00 
1.264283e+00 
1.289007e+00 
1.313990e+00 
1.339219e+00 
1.364684e+00 
9.994392e-01 
9.786987e-01 
9.584503e-01 
9.387036e-01 
9.194833e-01 
9.008167e-01 
8.827330e-01 
8.652625e-01 
8.484367e-01 
8.322887e-01 
8.168527e-01 
8.021652e-01 
7.882627e-01 
7.751825e-01 
7.629618e-01 
7.516379e-01 
7.412479e-01 
7.318278e-01 
7.234128e-01 
7.160361e-01 
7.097284e-01 
7.045173e-01 
7.004261e-01 
6.974696e-01 
6.956380e-01 
6.951688e-01 
6.968540e-01 
6.999958e-01 
7.044325e-01 
7.100792e-01 
7.168780e-01 
7.247813e-01 
7.337437e-01 
7.437221e-01 
7.546768e-01 
7.665681e-01 
7.793568e-01 
7.930039e-01 
8.074707e-01 
8.227195e-01 
8.387133e-01 
8.554164e-01 
8.727939e-01 
8.908125e-01 
9.094400e-01 
9.286456e-01 
9.483998e-01 
9.686744e-01 
9.894426e-01 
1.010679e+00 
1.032360e+00 
1.054462e+00 
1.076963e+00 
1.099844e+00 
1.123084e+00 
1.146666e+00 
1.170572e+00 
1.194787e+00 
1.219294e+00 
1.244079e+00 
1.269129e+00 
1.294431e+00 
1.319973e+00 
1.345743e+00 
9.754457e-01 
9.543020e-01 
9.336403e-01 
9.134759e-01 
8.938349e-01 
8.747459e-01 
8.562390e-01 
8.383461e-01 
8.211001e-01 
8.045359e-01 
7.886900e-01 
7.736008e-01 
7.593074e-01 
7.458495e-01 
7.332670e-01 
7.216001e-01 
7.108889e-01 
7.011727e-01 
6.924897e-01 
6.848763e-01 
6.783660e-01 
6.729892e-01 
6.687714e-01 
6.657287e-01 
6.638505e-01 
6.634476e-01 
6.652402e-01 
6.685163e-01 
6.731199e-01 
6.789673e-01 
6.859996e-01 
6.941674e-01 
7.034229e-01 
7.137205e-01 
7.250172e-01 
7.372702e-01 
7.504374e-01 
7.644768e-01 
7.793472e-01 
7.950084e-01 
8.114212e-01 
8.285477e-01 
8.463513e-01 
8.647968e-01 
8.838508e-01 
9.034811e-01 
9.236571e-01 
9.443497e-01 
9.655313e-01 
9.871757e-01 
1.009258e+00 
1.031755e+00 
1.054645e+00 
1.077907e+00 
1.101521e+00 
1.125469e+00 
1.149734e+00 
1.174300e+00 
1.199151e+00 
1.224272e+00 
1.249651e+00 
1.275274e+00 
1.301129e+00 
1.327205e+00 
9.518432e-01 
9.302801e-01 
9.091924e-01 
8.885973e-01 
8.685218e-01 
8.489955e-01 
8.300499e-01 
8.117180e-01 
7.940346e-01 
7.770360e-01 
7.607606e-01 
7.452500e-01 
7.305454e-01 
7.166892e-01 
7.037243e-01 
6.916940e-01 
6.806417e-01 
6.706103e-01 
6.616415e-01 
6.537749e-01 
6.470478e-01 
6.414933e-01 
6.371397e-01 
6.340050e-01 
6.320767e-01 
6.317299e-01 
6.336193e-01 
6.370306e-01 
6.418077e-01 
6.478664e-01 
6.551460e-01 
6.635943e-01 
6.731608e-01 
6.837966e-01 
6.954551e-01 
7.080903e-01 
7.216565e-01 
7.361088e-01 
7.514031e-01 
7.674964e-01 
7.843473e-01 
8.019154e-01 
8.201625e-01 
8.390515e-01 
8.585475e-01 
8.786170e-01 
8.992283e-01 
9.203513e-01 
9.419576e-01 
9.640203e-01 
9.865140e-01 
1.009415e+00 
1.032701e+00 
1.056351e+00 
1.080346e+00 
1.104666e+00 
1.129295e+00 
1.154216e+00 
1.179414e+00 
1.204875e+00 
1.230585e+00 
1.256531e+00 
1.282701e+00 
1.309085e+00 
9.285979e-01 
9.066027e-01 
8.850786e-01 
8.640414e-01 
8.435187e-01 
8.235412e-01 
8.041417e-01 
7.853545e-01 
7.672162e-01 
7.497648e-01 
7.330411e-01 
7.170889e-01 
7.019524e-01 
6.876765e-01 
6.743077e-01 
6.618926e-01 
6.504785e-01 
6.401120e-01 
6.308388e-01 
6.227025e-01 
6.157441e-01 
6.100003e-01 
6.055024e-01 
6.022702e-01 
6.002910e-01 
6.000171e-01 
6.020159e-01 
6.055738e-01 
6.105378e-01 
6.168235e-01 
6.243681e-01 
6.331165e-01 
6.430145e-01 
6.540093e-01 
6.660509e-01 
6.790894e-01 
6.930758e-01 
7.079616e-01 
7.236997e-01 
7.402442e-01 
7.575511e-01 
7.755778e-01 
7.942840e-01 
8.136311e-01 
8.335823e-01 
8.541030e-01 
8.751604e-01 
8.967234e-01 
9.187629e-01 
9.412513e-01 
9.641629e-01 
9.874737e-01 
1.011161e+00 
1.035204e+00 
1.059583e+00 
1.084279e+00 
1.109275e+00 
1.134554e+00 
1.160102e+00 
1.185903e+00 
1.211944e+00 
1.238214e+00 
1.264699e+00 
1.291390e+00 
9.057611e-01 
8.833269e-01 
8.613554e-01 
8.398635e-01 
8.188799e-01 
7.984363e-01 
7.785665e-01 
7.593066e-01 
7.406946e-01 
7.227705e-01 
7.055773e-01 
6.891615e-01 
6.735699e-01 
6.588509e-01 
6.450541e-01 
6.322305e-01 
6.204311e-01 
6.097069e-01 
6.001081e-01 
5.916828e-01 
5.844762e-01 
5.785291e-01 
5.738761e-01 
5.705399e-01 
5.685073e-01 
5.683086e-01 
5.704200e-01 
5.741322e-01 
5.792950e-01 
5.858231e-01 
5.936511e-01 
6.027201e-01 
6.129719e-01 
6.243497e-01 
6.367988e-01 
6.502654e-01 
6.646964e-01 
6.800397e-01 
6.962446e-01 
7.132625e-01 
7.310463e-01 
7.495513e-01 
7.687351e-01 
7.885571e-01 
8.089792e-01 
8.299654e-01 
8.514818e-01 
8.734965e-01 
8.959796e-01 
9.189033e-01 
9.422416e-01 
9.659700e-01 
9.900658e-01 
1.014508e+00 
1.039276e+00 
1.064352e+00 
1.089718e+00 
1.115357e+00 
1.141256e+00 
1.167399e+00 
1.193773e+00 
1.220366e+00 
1.247167e+00 
1.274164e+00 
8.833615e-01 
8.604784e-01 
8.380483e-01 
8.160893e-01 
7.946309e-01 
7.737059e-01 
7.533494e-01 
7.335986e-01 
7.144933e-01 
6.960756e-01 
6.783908e-01 
6.614878e-01 
6.454167e-01 
6.302292e-01 
6.159789e-01 
6.027207e-01 
5.905104e-01 
5.794038e-01 
5.694561e-01 
5.607203e-01 
5.532467e-01 
5.470808e-01 
5.422612e-01 
5.388134e-01 
5.367252e-01 
5.366033e-01 
5.388309e-01 
5.427066e-01 
5.480817e-01 
5.548696e-01 
5.630014e-01 
5.724139e-01 
5.830441e-01 
5.948302e-01 
6.077128e-01 
6.216335e-01 
6.365346e-01 
6.523600e-01 
6.690556e-01 
6.865693e-01 
7.048513e-01 
7.238544e-01 
7.435339e-01 
7.638476e-01 
7.847558e-01 
8.062213e-01 
8.282090e-01 
8.506865e-01 
8.736234e-01 
8.969914e-01 
9.207641e-01 
9.449168e-01 
9.694267e-01 
9.942723e-01 
1.019434e+00 
1.044892e+00 
1.070631e+00 
1.096633e+00 
1.122884e+00 
1.149369e+00 
1.176076e+00 
1.202993e+00 
1.230108e+00 
1.257410e+00 
8.614241e-01 
8.380824e-01 
8.151828e-01 
7.927444e-01 
7.707976e-01 
7.493760e-01 
7.285158e-01 
7.082558e-01 
6.886372e-01 
6.697043e-01 
6.515047e-01 
6.340899e-01 
6.175133e-01 
6.018303e-01 
5.870986e-01 
5.733779e-01 
5.607288e-01 
5.492127e-01 
5.388902e-01 
5.298203e-01 
5.220589e-01 
5.156569e-01 
5.106577e-01 
5.070904e-01 
5.049442e-01 
5.048998e-01 
5.072486e-01 
5.112981e-01 
5.169011e-01 
5.239685e-01 
5.324272e-01 
5.422086e-01 
5.532442e-01 
5.654666e-01 
5.788112e-01 
5.932139e-01 
6.086126e-01 
6.249467e-01 
6.421580e-01 
6.601910e-01 
6.789932e-01 
6.985146e-01 
7.187085e-01 
7.395309e-01 
7.609404e-01 
7.828988e-01 
8.053702e-01 
8.283216e-01 
8.517221e-01 
8.755428e-01 
8.997571e-01 
9.243402e-01 
9.492690e-01 
9.745222e-01 
1.000080e+00 
1.025924e+00 
1.052036e+00 
1.078402e+00 
1.105005e+00 
1.131833e+00 
1.158873e+00 
1.186112e+00 
1.213540e+00 
1.241146e+00 
8.399737e-01 
8.161650e-01 
7.927859e-01 
7.698564e-01 
7.474079e-01 
7.254749e-01 
7.040944e-01 
6.833066e-01 
6.631544e-01 
6.436842e-01 
6.249457e-01 
6.069933e-01 
5.898838e-01 
5.736765e-01 
5.584337e-01 
5.442201e-01 
5.311018e-01 
5.191463e-01 
5.084205e-01 
4.989902e-01 
4.909177e-01 
4.842603e-01 
4.790669e-01 
4.753710e-01 
4.731646e-01 
4.731976e-01 
4.756733e-01 
4.799088e-01 
4.857574e-01 
4.931265e-01 
5.019378e-01 
5.121165e-01 
5.235876e-01 
5.362773e-01 
5.501147e-01 
5.650301e-01 
5.809558e-01 
5.978266e-01 
6.155802e-01 
6.341574e-01 
6.535026e-01 
6.735633e-01 
6.942905e-01 
7.156385e-01 
7.375647e-01 
7.600298e-01 
7.829972e-01 
8.064333e-01 
8.303064e-01 
8.545875e-01 
8.792498e-01 
9.042683e-01 
9.296202e-01 
9.552842e-01 
9.812404e-01 
1.007471e+00 
1.033958e+00 
1.060687e+00 
1.087643e+00 
1.114813e+00 
1.142183e+00 
1.169743e+00 
1.197482e+00 
1.225389e+00 
8.190430e-01 
7.947609e-01 
7.708931e-01 
7.474619e-01 
7.244992e-01 
7.020403e-01 
6.801232e-01 
6.587892e-01 
6.380830e-01 
6.180527e-01 
5.987506e-01 
5.802335e-01 
5.625621e-01 
5.457998e-01 
5.300138e-01 
5.152740e-01 
5.016530e-01 
4.892249e-01 
4.780640e-01 
4.682434e-01 
4.598334e-01 
4.528985e-01 
4.474942e-01 
4.436592e-01 
4.413897e-01 
4.414983e-01 
4.441074e-01 
4.485424e-01 
4.546561e-01 
4.623518e-01 
4.715444e-01 
4.821519e-01 
4.940915e-01 
5.072824e-01 
5.216465e-01 
5.371076e-01 
5.535922e-01 
5.710298e-01 
5.893538e-01 
6.085011e-01 
6.284129e-01 
6.490343e-01 
6.703141e-01 
6.922050e-01 
7.146633e-01 
7.376486e-01 
7.611238e-01 
7.850544e-01 
8.094085e-01 
8.341568e-01 
8.592725e-01 
8.847309e-01 
9.105090e-01 
9.365859e-01 
9.629421e-01 
9.895597e-01 
1.016422e+00 
1.043514e+00 
1.070821e+00 
1.098330e+00 
1.126029e+00 
1.153907e+00 
1.181953e+00 
1.210159e+00 
7.986928e-01 
7.739316e-01 
7.495658e-01 
7.256219e-01 
7.021322e-01 
6.791325e-01 
6.566617e-01 
6.347622e-01 
6.134800e-01 
5.928651e-01 
5.729723e-01 
5.538614e-01 
5.355963e-01 
5.182452e-01 
5.018801e-01 
4.865771e-01 
4.724156e-01 
4.594771e-01 
4.478443e-01 
4.375992e-01 
4.288210e-01 
4.215826e-01 
4.159475e-01 
4.119608e-01 
4.096241e-01 
4.098060e-01 
4.125556e-01 
4.172049e-01 
4.236058e-01 
4.316556e-01 
4.412614e-01 
4.523322e-01 
4.647769e-01 
4.785062e-01 
4.934338e-01 
5.094761e-01 
5.265534e-01 
5.445895e-01 
5.635130e-01 
5.832571e-01 
6.037598e-01 
6.249635e-01 
6.468152e-01 
6.692661e-01 
6.922712e-01 
7.157894e-01 
7.397828e-01 
7.642167e-01 
7.890590e-01 
8.142804e-01 
8.398541e-01 
8.657556e-01 
8.919624e-01 
9.184536e-01 
9.452102e-01 
9.722146e-01 
9.994507e-01 
1.026903e+00 
1.054559e+00 
1.082405e+00 
1.110430e+00 
1.138623e+00 
1.166973e+00 
1.195474e+00 
7.789698e-01 
7.537181e-01 
7.288445e-01 
7.043764e-01 
6.803466e-01 
6.567911e-01 
6.337495e-01 
6.112649e-01 
5.893847e-01 
5.681605e-01 
5.476494e-01 
5.279142e-01 
5.090224e-01 
4.910466e-01 
4.740644e-01 
4.581582e-01 
4.434149e-01 
4.299246e-01 
4.177794e-01 
4.070715e-01 
3.978905e-01 
3.903196e-01 
3.844313e-01 
3.802787e-01 
3.778672e-01 
3.781074e-01 
3.810006e-01 
3.858800e-01 
3.925932e-01 
4.010292e-01 
4.110851e-01 
4.226593e-01 
4.356505e-01 
4.499598e-01 
4.654916e-01 
4.821544e-01 
4.998612e-01 
5.185301e-01 
5.380847e-01 
5.584542e-01 
5.795735e-01 
6.013825e-01 
6.238263e-01 
6.468546e-01 
6.704216e-01 
6.944854e-01 
7.190076e-01 
7.439534e-01 
7.692909e-01 
7.949910e-01 
8.210272e-01 
8.473751e-01 
8.740126e-01 
9.009193e-01 
9.280766e-01 
9.554675e-01 
9.830762e-01 
1.010888e+00 
1.038891e+00 
1.067072e+00 
1.095419e+00 
1.123923e+00 
1.152575e+00 
1.181366e+00 
7.598296e-01 
7.340787e-01 
7.086933e-01 
6.836955e-01 
6.591178e-01 
6.349963e-01 
6.113710e-01 
5.882858e-01 
5.657891e-01 
5.439340e-01 
5.227795e-01 
5.023910e-01 
4.828400e-01 
4.642036e-01 
4.465651e-01 
4.300139e-01 
4.146451e-01 
4.005584e-01 
3.878569e-01 
3.766445e-01 
3.670231e-01 
3.590882e-01 
3.529232e-01 
3.485902e-01 
3.461009e-01 
3.464104e-01 
3.494639e-01 
3.545976e-01 
3.616552e-01 
3.705163e-01 
3.810658e-01 
3.931893e-01 
4.067734e-01 
4.217078e-01 
4.378869e-01 
4.552106e-01 
4.735842e-01 
4.929197e-01 
5.131356e-01 
5.341573e-01 
5.559167e-01 
5.783513e-01 
6.014046e-01 
6.250252e-01 
6.491662e-01 
6.737853e-01 
6.988441e-01 
7.243077e-01 
7.501444e-01 
7.763256e-01 
8.028250e-01 
8.296188e-01 
8.566856e-01 
8.840054e-01 
9.115603e-01 
9.393338e-01 
9.673110e-01 
9.954780e-01 
1.023822e+00 
1.052332e+00 
1.080997e+00 
1.109807e+00 
1.138754e+00 
1.167831e+00 
7.413522e-01 
7.151058e-01 
6.892047e-01 
6.636710e-01 
6.385371e-01 
6.138390e-01 
5.896167e-01 
5.659147e-01 
5.427818e-01 
5.202726e-01 
4.984477e-01 
4.773750e-01 
4.571294e-01 
4.377928e-01 
4.194545e-01 
4.022113e-01 
3.861674e-01 
3.714331e-01 
3.581240e-01 
3.463579e-01 
3.362513e-01 
3.279142e-01 
3.214433e-01 
3.169116e-01 
3.143379e-01 
3.147146e-01 
3.179405e-01 
3.233528e-01 
3.307904e-01 
3.401199e-01 
3.512114e-01 
3.639356e-01 
3.781647e-01 
3.937756e-01 
4.106512e-01 
4.286816e-01 
4.477640e-01 
4.678039e-01 
4.887151e-01 
5.104190e-01 
5.328444e-01 
5.559269e-01 
5.796084e-01 
6.038366e-01 
6.285641e-01 
6.537485e-01 
6.793514e-01 
7.053382e-01 
7.316777e-01 
7.583417e-01 
7.853047e-01 
8.125437e-01 
8.400376e-01 
8.677676e-01 
8.957163e-01 
9.238680e-01 
9.522084e-01 
9.807245e-01 
1.009404e+00 
1.038237e+00 
1.067213e+00 
1.096323e+00 
1.125558e+00 
1.154912e+00 
7.235904e-01 
6.968479e-01 
6.704286e-01 
6.443547e-01 
6.186581e-01 
5.933744e-01 
5.685434e-01 
5.442093e-01 
5.204217e-01 
4.972358e-01 
4.747136e-01 
4.529250e-01 
4.319482e-01 
4.118698e-01 
3.927850e-01 
3.747986e-01 
3.580245e-01 
3.425852e-01 
3.286103e-01 
3.162340e-01 
3.055902e-01 
2.968064e-01 
2.899955e-01 
2.852438e-01 
2.825778e-01 
2.830193e-01 
2.864321e-01 
2.921518e-01 
3.000108e-01 
3.098593e-01 
3.215489e-01 
3.349322e-01 
3.498647e-01 
3.662084e-01 
3.838334e-01 
4.026188e-01 
4.224535e-01 
4.432366e-01 
4.648768e-01 
4.872917e-01 
5.104075e-01 
5.341581e-01 
5.584843e-01 
5.833332e-01 
6.086573e-01 
6.344144e-01 
6.605665e-01 
6.870795e-01 
7.139230e-01 
7.410696e-01 
7.684946e-01 
7.961758e-01 
8.240932e-01 
8.522287e-01 
8.805658e-01 
9.090898e-01 
9.377872e-01 
9.666457e-01 
9.956544e-01 
1.024803e+00 
1.054082e+00 
1.083484e+00 
1.113001e+00 
1.142626e+00 
7.065943e-01 
6.793581e-01 
6.524208e-01 
6.258048e-01 
5.995410e-01 
5.736645e-01 
5.482143e-01 
5.232345e-01 
4.987744e-01 
4.748899e-01 
4.516437e-01 
4.291073e-01 
4.073618e-01 
3.864979e-01 
3.666169e-01 
3.478318e-01 
3.302669e-01 
3.140581e-01 
2.993513e-01 
2.862994e-01 
2.750575e-01 
2.657748e-01 
2.585839e-01 
2.535872e-01 
2.508201e-01 
2.513236e-01 
2.549405e-01 
2.610019e-01 
2.693318e-01 
2.797588e-01 
2.921116e-01 
3.062210e-01 
3.219227e-01 
3.390615e-01 
3.574932e-01 
3.770854e-01 
3.977183e-01 
4.192842e-01 
4.416870e-01 
4.648411e-01 
4.886704e-01 
5.131077e-01 
5.380929e-01 
5.635733e-01 
5.895017e-01 
6.158364e-01 
6.425402e-01 
6.695800e-01 
6.969263e-01 
7.245528e-01 
7.524358e-01 
7.805543e-01 
8.088892e-01 
8.374236e-01 
8.661421e-01 
8.950309e-01 
9.240774e-01 
9.532703e-01 
9.825996e-01 
1.012056e+00 
1.041631e+00 
1.071316e+00 
1.101105e+00 
1.130991e+00 
6.904148e-01 
6.626902e-01 
6.352377e-01 
6.080804e-01 
5.812481e-01 
5.547746e-01 
5.286978e-01 
5.030607e-01 
4.779124e-01 
4.533085e-01 
4.293122e-01 
4.059962e-01 
3.834437e-01 
3.617492e-01 
3.410197e-01 
3.213762e-01 
3.029541e-01 
2.859037e-01 
2.703892e-01 
2.565861e-01 
2.446748e-01 
2.348312e-01 
2.272125e-01 
2.219414e-01 
2.190633e-01 
2.196253e-01 
2.234671e-01 
2.299115e-01 
2.387719e-01 
2.498479e-01 
2.629402e-01 
2.778528e-01 
2.943982e-01 
3.124014e-01 
3.317023e-01 
3.521563e-01 
3.736347e-01 
3.960233e-01 
4.192218e-01 
4.431416e-01 
4.677054e-01 
4.928452e-01 
5.185012e-01 
5.446209e-01 
5.711581e-01 
5.980722e-01 
6.253272e-01 
6.528913e-01 
6.807363e-01 
7.088373e-01 
7.371718e-01 
7.657202e-01 
7.944646e-01 
8.233894e-01 
8.524802e-01 
8.817244e-01 
9.111106e-01 
9.406285e-01 
9.702686e-01 
1.000022e+00 
1.029882e+00 
1.059840e+00 
1.089890e+00 
1.120026e+00 
6.750993e-01 
6.468937e-01 
6.189318e-01 
5.912374e-01 
5.638385e-01 
5.367673e-01 
5.100602e-01 
4.837586e-01 
4.579103e-01 
4.325700e-01 
4.078008e-01 
3.836755e-01 
3.602789e-01 
3.377085e-01 
3.160766e-01 