# vtk DataFile Version 2.0 
Quadtree Mesh 
ASCII 
DATASET UNSTRUCTURED_GRID 
POINTS 4096 double 
-1.000000e+00 -1.000000e+00 0.000000e+00
-9.682540e-01 -1.000000e+00 0.000000e+00
-9.365079e-01 -1.000000e+00 0.000000e+00
-9.047619e-01 -1.000000e+00 0.000000e+00
-8.730159e-01 -1.000000e+00 0.000000e+00
-8.412698e-01 -1.000000e+00 0.000000e+00
-8.095238e-01 -1.000000e+00 0.000000e+00
-7.777778e-01 -1.000000e+00 0.000000e+00
-7.460317e-01 -1.000000e+00 0.000000e+00
-7.142857e-01 -1.000000e+00 0.000000e+00
-6.825397e-01 -1.000000e+00 0.000000e+00
-6.507937e-01 -1.000000e+00 0.000000e+00
-6.190476e-01 -1.000000e+00 0.000000e+00
-5.873016e-01 -1.000000e+00 0.000000e+00
-5.555556e-01 -1.000000e+00 0.000000e+00
-5.238095e-01 -1.000000e+00 0.000000e+00
-4.920635e-01 -1.000000e+00 0.000000e+00
-4.603175e-01 -1.000000e+00 0.000000e+00
-4.285714e-01 -1.000000e+00 0.000000e+00
-3.968254e-01 -1.000000e+00 0.000000e+00
-3.650794e-01 -1.000000e+00 0.000000e+00
-3.333333e-01 -1.000000e+00 0.000000e+00
-3.015873e-01 -1.000000e+00 0.000000e+00
-2.698413e-01 -1.000000e+00 0.000000e+00
-2.380952e-01 -1.000000e+00 0.000000e+00
-2.063492e-01 -1.000000e+00 0.000000e+00
-1.746032e-01 -1.000000e+00 0.000000e+00
-1.428571e-01 -1.000000e+00 0.000000e+00
-1.111111e-01 -1.000000e+00 0.000000e+00
-7.936508e-02 -1.000000e+00 0.000000e+00
-4.761905e-02 -1.000000e+00 0.000000e+00
-1.587302e-02 -1.000000e+00 0.000000e+00
1.587302e-02 -1.000000e+00 0.000000e+00
4.761905e-02 -1.000000e+00 0.000000e+00
7.936508e-02 -1.000000e+00 0.000000e+00
1.111111e-01 -1.000000e+00 0.000000e+00
1.428571e-01 -1.000000e+00 0.000000e+00
1.746032e-01 -1.000000e+00 0.000000e+00
2.063492e-01 -1.000000e+00 0.000000e+00
2.380952e-01 -1.000000e+00 0.000000e+00
2.698413e-01 -1.000000e+00 0.000000e+00
3.015873e-01 -1.000000e+00 0.000000e+00
3.333333e-01 -1.000000e+00 0.000000e+00
3.650794e-01 -1.000000e+00 0.000000e+00
3.968254e-01 -1.000000e+00 0.000000e+00
4.285714e-01 -1.000000e+00 0.000000e+00
4.603175e-01 -1.000000e+00 0.000000e+00
4.920635e-01 -1.000000e+00 0.000000e+00
5.238095e-01 -1.000000e+00 0.000000e+00
5.555556e-01 -1.000000e+00 0.000000e+00
5.873016e-01 -1.000000e+00 0.000000e+00
6.190476e-01 -1.000000e+00 0.000000e+00
6.507937e-01 -1.000000e+00 0.000000e+00
6.825397e-01 -1.000000e+00 0.000000e+00
7.142857e-01 -1.000000e+00 0.000000e+00
7.460317e-01 -1.000000e+00 0.000000e+00
7.777778e-01 -1.000000e+00 0.000000e+00
8.095238e-01 -1.000000e+00 0.000000e+00
8.412698e-01 -1.000000e+00 0.000000e+00
8.730159e-01 -1.000000e+00 0.000000e+00
9.047619e-01 -1.000000e+00 0.000000e+00
9.365079e-01 -1.000000e+00 0.000000e+00
9.682540e-01 -1.000000e+00 0.000000e+00
1.000000e+00 -1.000000e+00 0.000000e+00
-1.000000e+00 -9.682540e-01 0.000000e+00
-9.682540e-01 -9.682540e-01 0.000000e+00
-9.365079e-01 -9.682540e-01 0.000000e+00
-9.047619e-01 -9.682540e-01 0.000000e+00
-8.730159e-01 -9.682540e-01 0.000000e+00
-8.412698e-01 -9.682540e-01 0.000000e+00
-8.095238e-01 -9.682540e-01 0.000000e+00
-7.777778e-01 -9.682540e-01 0.000000e+00
-7.460317e-01 -9.682540e-01 0.000000e+00
-7.142857e-01 -9.682540e-01 0.000000e+00
-6.825397e-01 -9.682540e-01 0.000000e+00
-6.507937e-01 -9.682540e-01 0.000000e+00
-6.190476e-01 -9.682540e-01 0.000000e+00
-5.873016e-01 -9.682540e-01 0.000000e+00
-5.555556e-01 -9.682540e-01 0.000000e+00
-5.238095e-01 -9.682540e-01 0.000000e+00
-4.920635e-01 -9.682540e-01 0.000000e+00
-4.603175e-01 -9.682540e-01 0.000000e+00
-4.285714e-01 -9.682540e-01 0.000000e+00
-3.968254e-01 -9.682540e-01 0.000000e+00
-3.650794e-01 -9.682540e-01 0.000000e+00
-3.333333e-01 -9.682540e-01 0.000000e+00
-3.015873e-01 -9.682540e-01 0.000000e+00
-2.698413e-01 -9.682540e-01 0.000000e+00
-2.380952e-01 -9.682540e-01 0.000000e+00
-2.063492e-01 -9.682540e-01 0.000000e+00
-1.746032e-01 -9.682540e-01 0.000000e+00
-1.428571e-01 -9.682540e-01 0.000000e+00
-1.111111e-01 -9.682540e-01 0.000000e+00
-7.936508e-02 -9.682540e-01 0.000000e+00
-4.761905e-02 -9.682540e-01 0.000000e+00
-1.587302e-02 -9.682540e-01 0.000000e+00
1.587302e-02 -9.682540e-01 0.000000e+00
4.761905e-02 -9.682540e-01 0.000000e+00
7.936508e-02 -9.682540e-01 0.000000e+00
1.111111e-01 -9.682540e-01 0.000000e+00
1.428571e-01 -9.682540e-01 0.000000e+00
1.746032e-01 -9.682540e-01 0.000000e+00
2.063492e-01 -9.682540e-01 0.000000e+00
2.380952e-01 -9.682540e-01 0.000000e+00
2.698413e-01 -9.682540e-01 0.000000e+00
3.015873e-01 -9.682540e-01 0.000000e+00
3.333333e-01 -9.682540e-01 0.000000e+00
3.650794e-01 -9.682540e-01 0.000000e+00
3.968254e-01 -9.682540e-01 0.000000e+00
4.285714e-01 -9.682540e-01 0.000000e+00
4.603175e-01 -9.682540e-01 0.000000e+00
4.920635e-01 -9.682540e-01 0.000000e+00
5.238095e-01 -9.682540e-01 0.000000e+00
5.555556e-01 -9.682540e-01 0.000000e+00
5.873016e-01 -9.682540e-01 0.000000e+00
6.190476e-01 -9.682540e-01 0.000000e+00
6.507937e-01 -9.682540e-01 0.000000e+00
6.825397e-01 -9.682540e-01 0.000000e+00
7.142857e-01 -9.682540e-01 0.000000e+00
7.460317e-01 -9.682540e-01 0.000000e+00
7.777778e-01 -9.682540e-01 0.000000e+00
8.095238e-01 -9.682540e-01 0.000000e+00
8.412698e-01 -9.682540e-01 0.000000e+00
8.730159e-01 -9.682540e-01 0.000000e+00
9.047619e-01 -9.682540e-01 0.000000e+00
9.365079e-01 -9.682540e-01 0.000000e+00
9.682540e-01 -9.682540e-01 0.000000e+00
1.000000e+00 -9.682540e-01 0.000000e+00
-1.000000e+00 -9.365079e-01 0.000000e+00
-9.682540e-01 -9.365079e-01 0.000000e+00
-9.365079e-01 -9.365079e-01 0.000000e+00
-9.047619e-01 -9.365079e-01 0.000000e+00
-8.730159e-01 -9.365079e-01 0.000000e+00
-8.412698e-01 -9.365079e-01 0.000000e+00
-8.095238e-01 -9.365079e-01 0.000000e+00
-7.777778e-01 -9.365079e-01 0.000000e+00
-7.460317e-01 -9.365079e-01 0.000000e+00
-7.142857e-01 -9.365079e-01 0.000000e+00
-6.825397e-01 -9.365079e-01 0.000000e+00
-6.507937e-01 -9.365079e-01 0.000000e+00
-6.190476e-01 -9.365079e-01 0.000000e+00
-5.873016e-01 -9.365079e-01 0.000000e+00
-5.555556e-01 -9.365079e-01 0.000000e+00
-5.238095e-01 -9.365079e-01 0.000000e+00
-4.920635e-01 -9.365079e-01 0.000000e+00
-4.603175e-01 -9.365079e-01 0.000000e+00
-4.285714e-01 -9.365079e-01 0.000000e+00
-3.968254e-01 -9.365079e-01 0.000000e+00
-3.650794e-01 -9.365079e-01 0.000000e+00
-3.333333e-01 -9.365079e-01 0.000000e+00
-3.015873e-01 -9.365079e-01 0.000000e+00
-2.698413e-01 -9.365079e-01 0.000000e+00
-2.380952e-01 -9.365079e-01 0.000000e+00
-2.063492e-01 -9.365079e-01 0.000000e+00
-1.746032e-01 -9.365079e-01 0.000000e+00
-1.428571e-01 -9.365079e-01 0.000000e+00
-1.111111e-01 -9.365079e-01 0.000000e+00
-7.936508e-02 -9.365079e-01 0.000000e+00
-4.761905e-02 -9.365079e-01 0.000000e+00
-1.587302e-02 -9.365079e-01 0.000000e+00
1.587302e-02 -9.365079e-01 0.000000e+00
4.761905e-02 -9.365079e-01 0.000000e+00
7.936508e-02 -9.365079e-01 0.000000e+00
1.111111e-01 -9.365079e-01 0.000000e+00
1.428571e-01 -9.365079e-01 0.000000e+00
1.746032e-01 -9.365079e-01 0.000000e+00
2.063492e-01 -9.365079e-01 0.000000e+00
2.380952e-01 -9.365079e-01 0.000000e+00
2.698413e-01 -9.365079e-01 0.000000e+00
3.015873e-01 -9.365079e-01 0.000000e+00
3.333333e-01 -9.365079e-01 0.000000e+00
3.650794e-01 -9.365079e-01 0.000000e+00
3.968254e-01 -9.365079e-01 0.000000e+00
4.285714e-01 -9.365079e-01 0.000000e+00
4.603175e-01 -9.365079e-01 0.000000e+00
4.920635e-01 -9.365079e-01 0.000000e+00
5.238095e-01 -9.365079e-01 0.000000e+00
5.555556e-01 -9.365079e-01 0.000000e+00
5.873016e-01 -9.365079e-01 0.000000e+00
6.190476e-01 -9.365079e-01 0.000000e+00
6.507937e-01 -9.365079e-01 0.000000e+00
6.825397e-01 -9.365079e-01 0.000000e+00
7.142857e-01 -9.365079e-01 0.000000e+00
7.460317e-01 -9.365079e-01 0.000000e+00
7.777778e-01 -9.365079e-01 0.000000e+00
8.095238e-01 -9.365079e-01 0.000000e+00
8.412698e-01 -9.365079e-01 0.000000e+00
8.730159e-01 -9.365079e-01 0.000000e+00
9.047619e-01 -9.365079e-01 0.000000e+00
9.365079e-01 -9.365079e-01 0.000000e+00
9.682540e-01 -9.365079e-01 0.000000e+00
1.000000e+00 -9.365079e-01 0.000000e+00
-1.000000e+00 -9.047619e-01 0.000000e+00
-9.682540e-01 -9.047619e-01 0.000000e+00
-9.365079e-01 -9.047619e-01 0.000000e+00
-9.047619e-01 -9.047619e-01 0.000000e+00
-8.730159e-01 -9.047619e-01 0.000000e+00
-8.412698e-01 -9.047619e-01 0.000000e+00
-8.095238e-01 -9.047619e-01 0.000000e+00
-7.777778e-01 -9.047619e-01 0.000000e+00
-7.460317e-01 -9.047619e-01 0.000000e+00
-7.142857e-01 -9.047619e-01 0.000000e+00
-6.825397e-01 -9.047619e-01 0.000000e+00
-6.507937e-01 -9.047619e-01 0.000000e+00
-6.190476e-01 -9.047619e-01 0.000000e+00
-5.873016e-01 -9.047619e-01 0.000000e+00
-5.555556e-01 -9.047619e-01 0.000000e+00
-5.238095e-01 -9.047619e-01 0.000000e+00
-4.920635e-01 -9.047619e-01 0.000000e+00
-4.603175e-01 -9.047619e-01 0.000000e+00
-4.285714e-01 -9.047619e-01 0.000000e+00
-3.968254e-01 -9.047619e-01 0.000000e+00
-3.650794e-01 -9.047619e-01 0.000000e+00
-3.333333e-01 -9.047619e-01 0.000000e+00
-3.015873e-01 -9.047619e-01 0.000000e+00
-2.698413e-01 -9.047619e-01 0.000000e+00
-2.380952e-01 -9.047619e-01 0.000000e+00
-2.063492e-01 -9.047619e-01 0.000000e+00
-1.746032e-01 -9.047619e-01 0.000000e+00
-1.428571e-01 -9.047619e-01 0.000000e+00
-1.111111e-01 -9.047619e-01 0.000000e+00
-7.936508e-02 -9.047619e-01 0.000000e+00
-4.761905e-02 -9.047619e-01 0.000000e+00
-1.587302e-02 -9.047619e-01 0.000000e+00
1.587302e-02 -9.047619e-01 0.000000e+00
4.761905e-02 -9.047619e-01 0.000000e+00
7.936508e-02 -9.047619e-01 0.000000e+00
1.111111e-01 -9.047619e-01 0.000000e+00
1.428571e-01 -9.047619e-01 0.000000e+00
1.746032e-01 -9.047619e-01 0.000000e+00
2.063492e-01 -9.047619e-01 0.000000e+00
2.380952e-01 -9.047619e-01 0.000000e+00
2.698413e-01 -9.047619e-01 0.000000e+00
3.015873e-01 -9.047619e-01 0.000000e+00
3.333333e-01 -9.047619e-01 0.000000e+00
3.650794e-01 -9.047619e-01 0.000000e+00
3.968254e-01 -9.047619e-01 0.000000e+00
4.285714e-01 -9.047619e-01 0.000000e+00
4.603175e-01 -9.047619e-01 0.000000e+00
4.920635e-01 -9.047619e-01 0.000000e+00
5.238095e-01 -9.047619e-01 0.000000e+00
5.555556e-01 -9.047619e-01 0.000000e+00
5.873016e-01 -9.047619e-01 0.000000e+00
6.190476e-01 -9.047619e-01 0.000000e+00
[...]
POINT_DATA 4096 
SCALARS concentration double 1 
LOOKUP_TABLE default 
1.016957e+00 
9.954189e-01 
9.743065e-01 
9.536712e-01 
9.335318e-01 
9.139149e-01 
8.948495e-01 
8.763659e-01 
8.584961e-01 
8.412733e-01 
8.247325e-01 
8.089105e-01 
7.938457e-01 
7.795776e-01 
7.661468e-01 
7.535944e-01 
7.419622e-01 
7.312920e-01 
7.216252e-01 
7.130018e-01 
7.054600e-01 
6.990345e-01 
6.937557e-01 
6.896470e-01 
6.867140e-01 
6.848755e-01 
6.850454e-01 
6.871163e-01 
6.906392e-01 
6.954682e-01 
7.015201e-01 
7.087358e-01 
7.170635e-01 
7.264550e-01 
7.368666e-01 
7.482555e-01 
7.605789e-01 
7.737932e-01 
7.878567e-01 
8.027292e-01 
8.183718e-01 
8.347462e-01 
8.518159e-01 
8.695455e-01 
8.879012e-01 
9.068505e-01 
9.263626e-01 
9.464080e-01 
9.669588e-01 
9.879886e-01 
1.009472e+00 
1.031386e+00 
1.053707e+00 
1.076415e+00 
1.099489e+00 
1.122910e+00 
1.146661e+00 
1.170726e+00 
1.195087e+00 
1.219730e+00 
1.244641e+00 
1.269807e+00 
1.295214e+00 
1.320853e+00 
9.936914e-01 
9.717405e-01 
9.502105e-01 
9.291519e-01 
9.085843e-01 
8.885354e-01 
8.690350e-01 
8.501150e-01 
8.318084e-01 
8.141503e-01 
7.971773e-01 
7.809278e-01 
7.654425e-01 
7.507636e-01 
7.369344e-01 
7.239992e-01 
7.120030e-01 
7.009911e-01 
6.910088e-01 
6.820998e-01 
6.743060e-01 
6.676658e-01 
6.622127e-01 
6.579727e-01 
6.549530e-01 
6.530780e-01 
6.533321e-01 
6.555215e-01 
6.591970e-01 
6.642132e-01 
6.704868e-01 
6.779571e-01 
6.865698e-01 
6.962739e-01 
7.070226e-01 
7.187702e-01 
7.314711e-01 
7.450786e-01 
7.595478e-01 
7.748359e-01 
7.909011e-01 
8.077033e-01 
8.252039e-01 
8.433656e-01 
8.621532e-01 
8.815329e-01 
9.014725e-01 
9.219416e-01 
9.429115e-01 
9.643549e-01 
9.862461e-01 
1.008561e+00 
1.031276e+00 
1.054371e+00 
1.077825e+00 
1.101618e+00 
1.125733e+00 
1.150154e+00 
1.174863e+00 
1.199847e+00 
1.225091e+00 
1.250581e+00 
1.276306e+00 
1.302254e+00 
9.708287e-01 
9.484550e-01 
9.264962e-01 
9.050021e-01 
8.839931e-01 
8.634978e-01 
8.435472e-01 
8.241742e-01 
8.054134e-01 
7.873015e-01 
7.698771e-01 
7.531803e-01 
7.372540e-01 
7.221428e-01 
7.078933e-01 
6.945531e-01 
6.821707e-01 
6.707955e-01 
6.604767e-01 
6.512625e-01 
6.431989e-01 
6.363285e-01 
6.306885e-01 
6.263077e-01 
6.231955e-01 
6.212816e-01 
6.216228e-01 
6.239353e-01 
6.277710e-01 
6.329853e-01 
6.394944e-01 
6.472356e-01 
6.561516e-01 
6.661884e-01 
6.772957e-01 
6.894239e-01 
7.025240e-01 
7.165466e-01 
7.314430e-01 
7.471673e-01 
7.636752e-01 
7.809242e-01 
7.988736e-01 
8.174845e-01 
8.367198e-01 
8.565445e-01 
8.769252e-01 
8.978306e-01 
9.192310e-01 
9.410986e-01 
9.634069e-01 
9.861314e-01 
1.009249e+00 
1.032737e+00 
1.056577e+00 
1.080747e+00 
1.105231e+00 
1.130012e+00 
1.155073e+00 
1.180400e+00 
1.205979e+00 
1.231797e+00 
1.257841e+00 
1.284100e+00 
9.483864e-01 
9.255811e-01 
9.031835e-01 
8.812428e-01 
8.597801e-01 
8.388250e-01 
8.184093e-01 
7.985671e-01 
7.793346e-01 
7.607500e-01 
7.428538e-01 
7.256886e-01 
7.092991e-01 
6.937328e-01 
6.790395e-01 
6.652703e-01 
6.524779e-01 
6.407156e-01 
6.300375e-01 
6.204964e-01 
6.121434e-01 
6.050256e-01 
5.991846e-01 
5.946525e-01 
5.914413e-01 
5.894860e-01 
5.899172e-01 
5.923576e-01 
5.963622e-01 
6.017869e-01 
6.085469e-01 
6.165770e-01 
6.258166e-01 
6.362076e-01 
6.476957e-01 
6.602273e-01 
6.737494e-01 
6.882094e-01 
7.035548e-01 
7.197364e-01 
7.367070e-01 
7.544219e-01 
7.728381e-01 
7.919147e-01 
8.116133e-01 
8.318972e-01 
8.527321e-01 
8.740856e-01 
8.959273e-01 
9.182286e-01 
9.409627e-01 
9.641046e-01 
9.876307e-01 
1.011519e+00 
1.035749e+00 
1.060301e+00 
1.085158e+00 
1.110302e+00 
1.135718e+00 
1.161390e+00 
1.187306e+00 
1.213452e+00 
1.239815e+00 
1.266385e+00 
9.263906e-01 
9.031451e-01 
8.802990e-01 
8.579007e-01 
8.359721e-01 
8.145434e-01 
7.936475e-01 
7.733198e-01 
7.535975e-01 
7.345207e-01 
7.161316e-01 
6.984752e-01 
6.815990e-01 
6.655532e-01 
6.503909e-01 
6.361671e-01 
6.229384e-01 
6.107633e-01 
5.997006e-01 
5.898089e-01 
5.811445e-01 
5.737603e-01 
5.677025e-01 
5.630075e-01 
5.596900e-01 
5.576907e-01 
5.582145e-01 
5.607887e-01 
5.649720e-01 
5.706211e-01 
5.776495e-01 
5.859888e-01 
5.955741e-01 
6.063430e-01 
6.182364e-01 
6.311962e-01 
6.451649e-01 
6.600863e-01 
6.759039e-01 
6.925650e-01 
7.100195e-01 
7.282200e-01 
7.471213e-01 
7.666808e-01 
7.868582e-01 
8.076156e-01 
8.289176e-01 
8.507308e-01 
8.730241e-01 
8.957684e-01 
9.189363e-01 
9.425026e-01 
9.664434e-01 
9.907367e-01 
1.015362e+00 
1.040299e+00 
1.065531e+00 
1.091041e+00 
1.116813e+00 
1.142832e+00 
1.169085e+00 
1.195559e+00 
1.222242e+00 
1.249122e+00 
9.048682e-01 
8.811744e-01 
8.578704e-01 
8.350039e-01 
8.125971e-01 
7.906813e-01 
7.692903e-01 
7.484601e-01 
7.282297e-01 
7.086405e-01 
6.897367e-01 
6.715656e-01 
6.541776e-01 
6.376264e-01 
6.219681e-01 
6.072619e-01 
5.935690e-01 
5.809527e-01 
5.694777e-01 
5.592089e-01 
5.502090e-01 
5.425369e-01 
5.362448e-01 
5.313737e-01 
5.279419e-01 
5.258957e-01 
5.265149e-01 
5.292293e-01 
5.336028e-01 
5.394921e-01 
5.468084e-01 
5.554793e-01 
5.654351e-01 
5.766080e-01 
5.889336e-01 
6.023486e-01 
6.167905e-01 
6.321989e-01 
6.485135e-01 
6.656777e-01 
6.836383e-01 
7.023451e-01 
7.217506e-01 
7.418103e-01 
7.624823e-01 
7.837276e-01 
8.055095e-01 
8.277939e-01 
8.505489e-01 
8.737449e-01 
8.973543e-01 
9.213515e-01 
9.457125e-01 
9.704152e-01 
9.954390e-01 
1.020765e+00 
1.046374e+00 
1.072251e+00 
1.098380e+00 
1.124746e+00 
1.151336e+00 
1.178137e+00 
1.205139e+00 
1.232329e+00 
8.838482e-01 
8.596982e-01 
8.359277e-01 
8.125826e-01 
7.896860e-01 
7.672697e-01 
7.453683e-01 
7.240189e-01 
7.032617e-01 
6.831397e-01 
6.636990e-01 
6.449891e-01 
6.270637e-01 
6.099796e-01 
5.937968e-01 
5.785785e-01 
5.643907e-01 
5.513025e-01 
5.393849e-01 
5.287097e-01 
5.193470e-01 
5.113630e-01 
5.048168e-01 
4.997550e-01 
4.961996e-01 
4.941031e-01 
4.948202e-01 
4.976821e-01 
5.022583e-01 
5.084053e-01 
5.160312e-01 
5.250586e-01 
5.354119e-01 
5.470175e-01 
5.598047e-01 
5.737042e-01 
5.886482e-01 
6.045712e-01 
6.214093e-01 
6.391015e-01 
6.575913e-01 
6.768257e-01 
6.967550e-01 
7.173328e-01 
7.385157e-01 
7.602632e-01 
7.825378e-01 
8.053045e-01 
8.285310e-01 
8.521872e-01 
8.762453e-01 
9.006794e-01 
9.254656e-01 
9.505818e-01 
9.760074e-01 
1.001723e+00 
1.027712e+00 
1.053957e+00 
1.080443e+00 
1.107155e+00 
1.134082e+00 
1.161210e+00 
1.188527e+00 
1.216025e+00 
8.633635e-01 
8.387504e-01 
8.145057e-01 
7.906723e-01 
7.672747e-01 
7.443452e-01 
7.219188e-01 
7.000337e-01 
6.787311e-01 
6.580557e-01 
6.380555e-01 
6.187826e-01 
6.002934e-01 
5.826478e-01 
5.659098e-01 
5.501471e-01 
5.354312e-01 
5.218370e-01 
5.094429e-01 
4.983285e-01 
4.885725e-01 
4.802495e-01 
4.734265e-01 
4.681569e-01 
4.644674e-01 
4.623164e-01 
4.631335e-01 
4.661506e-01 
4.709433e-01 
4.773675e-01 
4.853268e-01 
4.947378e-01 
5.055184e-01 
5.175880e-01 
5.308687e-01 
5.452843e-01 
5.607611e-01 
5.772281e-01 
5.946172e-01 
6.128632e-01 
6.319060e-01 
6.516899e-01 
6.721628e-01 
6.932765e-01 
7.149861e-01 
7.372499e-01 
7.600295e-01 
7.832894e-01 
8.069967e-01 
8.311210e-01 
8.556343e-01 
8.805107e-01 
9.057265e-01 
9.312594e-01 
9.570892e-01 
9.831971e-01 
1.009566e+00 
1.036179e+00 
1.063021e+00 
1.090080e+00 
1.117341e+00 
1.144794e+00 
1.172426e+00 
1.200228e+00 
8.434328e-01 
8.183537e-01 
7.936278e-01 
7.692988e-01 
7.453913e-01 
7.219378e-01 
6.989737e-01 
6.765380e-01 
6.546730e-01 
6.334247e-01 
6.128433e-01 
5.929830e-01 
5.739027e-01 
5.556658e-01 
5.383405e-01 
5.219993e-01 
5.067197e-01 
4.925830e-01 
4.796756e-01 
4.680861e-01 
4.579027e-01 
4.492101e-01 
4.420848e-01 
4.365886e-01 
4.327541e-01 
4.305414e-01 
4.314414e-01 
4.346168e-01 
4.396399e-01 
4.463623e-01 
4.546819e-01 
4.645074e-01 
4.757488e-01 
4.883170e-01 
5.021259e-01 
5.170919e-01 
5.331345e-01 
5.501770e-01 
5.681464e-01 
5.869729e-01 
6.065933e-01 
6.269489e-01 
6.479855e-01 
6.696529e-01 
6.919049e-01 
7.146988e-01 
7.379954e-01 
7.617586e-01 
7.859551e-01 
8.105545e-01 
8.355287e-01 
8.608520e-01 
8.865006e-01 
9.124527e-01 
9.386883e-01 
9.651888e-01 
9.919372e-01 
1.018918e+00 
1.046116e+00 
1.073518e+00 
1.101113e+00 
1.128887e+00 
1.156831e+00 
1.184935e+00 
8.241162e-01 
7.985641e-01 
7.733503e-01 
7.485166e-01 
7.240885e-01 
7.000981e-01 
6.765815e-01 
6.535779e-01 
6.311307e-01 
6.092869e-01 
5.880984e-01 
5.676217e-01 
5.479183e-01 
5.290553e-01 
5.111051e-01 
4.941458e-01 
4.782612e-01 
4.635401e-01 
4.500773e-01 
4.379712e-01 
4.273213e-01 
4.182239e-01 
4.107672e-01 
4.050228e-01 
4.010296e-01 
3.987537e-01 
3.997551e-01 
4.031070e-01 
4.083839e-01 
4.154338e-01 
4.241478e-01 
4.344255e-01 
4.461666e-01 
4.592722e-01 
4.736473e-01 
4.892001e-01 
5.058428e-01 
5.234926e-01 
5.420710e-01 
5.615043e-01 
5.817255e-01 
6.026732e-01 
6.242909e-01 
6.465269e-01 
6.693337e-01 
6.926677e-01 
7.164890e-01 
7.407613e-01 
7.654512e-01 
7.905281e-01 
8.159641e-01 
8.417338e-01 
8.678136e-01 
8.941822e-01 
9.208198e-01 
9.477084e-01 
9.748314e-01 
1.002174e+00 
1.029721e+00 
1.057460e+00 
1.085379e+00 
1.113468e+00 
1.141715e+00 
1.170112e+00 
8.054351e-01 
7.794072e-01 
7.537008e-01 
7.283561e-01 
7.033991e-01 
6.788618e-01 
6.547802e-01 
6.311940e-01 
6.081469e-01 
5.856873e-01 
5.638682e-01 
5.427481e-01 
5.223912e-01 
5.028682e-01 
4.842559e-01 
4.666382e-01 
4.501055e-01 
4.347552e-01 
4.206908e-01 
4.080220e-01 
3.968613e-01 
3.873191e-01 
3.794971e-01 
3.734792e-01 
3.693123e-01 
3.669682e-01 
3.680720e-01 
3.716134e-01 
3.771667e-01 
3.845748e-01 
3.937198e-01 
4.044904e-01 
4.167745e-01 
4.304619e-01 
4.454471e-01 
4.616289e-01 
4.789116e-01 
4.972056e-01 
5.164271e-01 
5.364979e-01 
5.573475e-01 
5.789118e-01 
6.011324e-01 
6.239559e-01 
6.473339e-01 
6.712220e-01 
6.955800e-01 
7.203715e-01 
7.455630e-01 
7.711242e-01 
7.970274e-01 
8.232477e-01 
8.497618e-01 
8.765490e-01 
9.035899e-01 
9.308672e-01 
9.583647e-01 
9.860677e-01 
1.013963e+00 
1.042037e+00 
1.070280e+00 
1.098680e+00 
1.127228e+00 
1.155915e+00 
7.874316e-01 
7.609266e-01 
7.347245e-01 
7.088641e-01 
6.833716e-01 
6.582786e-01 
6.336209e-01 
6.094383e-01 
5.857748e-01 
5.626794e-01 
5.402063e-01 
5.184157e-01 
4.973744e-01 
4.771560e-01 
4.578422e-01 
4.395224e-01 
4.222945e-01 
4.062646e-01 
3.915470e-01 
3.782635e-01 
3.665415e-01 
3.565080e-01 
3.482817e-01 
3.419610e-01 
3.376029e-01 
3.351848e-01 
3.363919e-01 
3.401383e-01 
3.459943e-01 
3.537959e-01 
3.634142e-01 
3.747242e-01 
3.875997e-01 
4.019174e-01 
4.175595e-01 
4.344146e-01 
4.523785e-01 
4.713542e-01 
4.912524e-01 
5.119904e-01 
5.334944e-01 
5.556979e-01 
5.785405e-01 
6.019677e-01 
6.259302e-01 
6.503834e-01 
6.752868e-01 
7.006040e-01 
7.263020e-01 
7.523508e-01 
7.787233e-01 
8.053948e-01 
8.323430e-01 
8.595476e-01 
8.869900e-01 
9.146533e-01 
9.425222e-01 
9.705825e-01 
9.988214e-01 
1.027227e+00 
1.055788e+00 
1.084496e+00 
1.113340e+00 
1.142312e+00 
7.701470e-01 
7.431655e-01 
7.164666e-01 
6.900877e-01 
6.640548e-01 
6.383993e-01 
6.131563e-01 
5.883652e-01 
5.640701e-01 
5.403203e-01 
5.171707e-01 
4.946828e-01 
4.729256e-01 
4.519758e-01 
4.319192e-01 
4.128511e-01 
3.948768e-01 
3.781122e-01 
3.626833e-01 
3.487261e-01 
3.363848e-01 
3.258062e-01 
3.171294e-01 
3.104718e-01 
3.059021e-01 
3.034039e-01 
3.047147e-01 
3.086842e-01 
3.148735e-01 
3.231102e-01 
3.332509e-01 
3.451536e-01 
3.586755e-01 
3.736773e-01 
3.900280e-01 
4.076045e-01 
4.262931e-01 
4.459897e-01 
4.665989e-01 
4.880340e-01 
5.102182e-01 
5.330825e-01 
5.565651e-01 
5.806107e-01 
6.051695e-01 
6.301967e-01 
6.556521e-01 
6.814997e-01 
7.077069e-01 
7.342445e-01 
7.610859e-01 
7.882074e-01 
8.155873e-01 
8.432061e-01 
8.710460e-01 
8.990908e-01 
9.273260e-01 
9.557381e-01 
9.843149e-01 
1.013045e+00 
1.041919e+00 
1.070927e+00 
1.100060e+00 
1.129311e+00 
7.536246e-01 
7.261697e-01 
6.989751e-01 
6.720771e-01 
6.455016e-01 
6.192790e-01 
5.934437e-01 
5.680343e-01 
5.430945e-01 
5.186732e-01 
4.948260e-01 
4.716150e-01 
4.491108e-01 
4.273929e-01 
4.065510e-01 
3.866858e-01 
3.679103e-01 
3.503504e-01 
3.341453e-01 
3.194469e-01 
3.064193e-01 
2.952326e-01 
2.860510e-01 
2.790157e-01 
2.742108e-01 
2.716255e-01 
2.730403e-01 
2.772538e-01 
2.838128e-01 
2.925333e-01 
3.032537e-01 
3.158109e-01 
3.300414e-01 
3.457880e-01 
3.629038e-01 
3.812533e-01 
4.007130e-01 
4.211711e-01 
4.425263e-01 
4.646883e-01 
4.875773e-01 
5.111228e-01 
5.352620e-01 
5.599388e-01 
5.851034e-01 
6.107116e-01 
6.367236e-01 
6.631040e-01 
6.898211e-01 
7.168465e-01 
7.441547e-01 
7.717229e-01 
7.995302e-01 
8.275581e-01 
8.557898e-01 
8.842099e-01 
9.128047e-01 
9.415615e-01 
9.704689e-01 
9.995166e-01 
1.028695e+00 
1.057995e+00 
1.087410e+00 
1.116931e+00 
7.379094e-01 
7.099872e-01 
6.823011e-01 
6.548861e-01 
6.277684e-01 
6.009771e-01 
5.745453e-01 
5.485105e-01 
5.229155e-01 
4.978085e-01 
4.732446e-01 
4.492864e-01 
4.260054e-01 
4.034831e-01 
3.818125e-01 
3.610994e-01 
3.414643e-01 
3.230433e-01 
3.059893e-01 
2.904730e-01 
2.766815e-01 
2.648122e-01 
2.550609e-01 
2.475995e-01 
2.425315e-01 
2.398513e-01 
2.413699e-01 
2.458521e-01 
2.528235e-01 
2.620855e-01 
2.734529e-01 
2.867358e-01 
3.017459e-01 
3.183045e-01 
3.362475e-01 
3.554256e-01 
3.757048e-01 
3.969658e-01 
4.191020e-01 
4.420197e-01 
4.656370e-01 
4.898823e-01 
5.146920e-01 
5.400105e-01 
5.657883e-01 
5.919818e-01 
6.185523e-01 
6.454656e-01 
6.726909e-01 
7.002011e-01 
7.279718e-01 
7.559813e-01 
7.842098e-01 
8.126400e-01 
8.412560e-01 
8.700434e-01 
8.989895e-01 
9.280825e-01 
9.573118e-01 
9.866678e-01 
1.016142e+00 
1.045726e+00 
1.075412e+00 
1.105195e+00 
7.230452e-01 
6.946649e-01 
6.664957e-01 
6.385707e-01 
6.109152e-01 
5.835572e-01 
5.565283e-01 
5.298647e-01 
5.036075e-01 
4.778039e-01 
4.525079e-01 
4.277813e-01 
4.036960e-01 
3.803345e-01 
3.577922e-01 
3.361794e-01 
3.156231e-01 
2.962696e-01 
2.782867e-01 
2.618654e-01 
2.472193e-01 
2.345788e-01 
2.241791e-01 
2.162327e-01 
2.108685e-01 
2.080846e-01 
2.097058e-01 
2.144857e-01 
2.219205e-01 
2.317929e-01 
2.438865e-01 
2.579776e-01 
2.738476e-01 
2.912934e-01 
3.101308e-01 
3.301962e-01 
3.513449e-01 
3.734503e-01 
3.964013e-01 
4.201017e-01 
4.444683e-01 
4.694289e-01 
4.949204e-01 
5.208878e-01 
5.472828e-01 
5.740630e-01 
6.011910e-01 
6.286340e-01 
6.563629e-01 
6.843518e-01 
7.125778e-01 
7.410204e-01 
7.696614e-01 
7.984846e-01 
8.274751e-01 
8.566198e-01 
8.859070e-01 
9.153257e-01 
9.448665e-01 
9.745204e-01 
1.004280e+00 
1.034137e+00 
1.064085e+00 
1.094119e+00 
7.090515e-01 
6.802286e-01 
6.515898e-01 
6.231668e-01 
5.949838e-01 
5.670671e-01 
5.394464e-01 
5.121561e-01 
4.852356e-01 
4.587301e-01 
4.326916e-01 
4.071809e-01 
3.822686e-01 
3.580372e-01 
3.345834e-01 
3.120204e-01 
2.904807e-01 
2.701203e-01 
2.511216e-01 
2.336972e-01 
2.180907e-01 
2.045727e-01 
1.934287e-01 
1.849256e-01 
1.792258e-01 
1.763264e-01 
1.780372e-01 
1.831480e-01 
1.911080e-01 
2.016745e-01 
2.145895e-01 
2.295858e-01 
2.464083e-01 
2.648249e-01 
2.846299e-01 
3.056445e-01 
3.277139e-01 
3.507050e-01 
3.745033e-01 
3.990110e-01 
4.241449e-01 
4.498334e-01 
4.760144e-01 
5.026344e-01 
5.296468e-01 
5.570111e-01 
5.846918e-01 
6.126579e-01 
6.408821e-01 
6.693403e-01 
6.980112e-01 
7.268759e-01 
7.559178e-01 
7.851218e-01 
8.144746e-01 
8.439642e-01 
8.735799e-01 
9.033119e-01 
9.331516e-01 
9.630912e-01 
9.931233e-01 
1.023242e+00 
1.053440e+00 
1.083714e+00 
6.960288e-01 
6.667765e-01 
6.376821e-01 
6.087752e-01 
5.800779e-01 
5.516140e-01 
5.234109e-01 
4.955003e-01 
4.679189e-01 
4.407093e-01 
4.139213e-01 
3.876132e-01 
3.618533e-01 
3.367229e-01 
3.123178e-01 
2.887521e-01 
2.661621e-01 
2.447112e-01 
2.245960e-01 
2.060519e-01 
1.893566e-01 
1.748296e-01 
1.628207e-01 
1.536699e-01 
1.475861e-01 
1.445617e-01 
1.463704e-01 
1.518600e-01 
1.604257e-01 
1.717926e-01 
1.856462e-01 
2.016635e-01 
2.195439e-01 
2.390222e-01 
2.598704e-01 
2.818949e-01 
3.049323e-01 
3.288444e-01 
3.535152e-01 
3.788474e-01 
4.047587e-01 
4.311791e-01 
4.580490e-01 
4.853170e-01 
5.129392e-01 
5.408773e-01 
5.690983e-01 
5.975735e-01 
6.262776e-01 
6.551888e-01 
6.842875e-01 
7.135568e-01 
7.429814e-01 
7.725479e-01 
8.022444e-01 
8.320602e-01 
8.619857e-01 
8.920123e-01 
9.221324e-01 
9.523389e-01 
9.826256e-01 
1.012987e+00 
1.043417e+00 
1.073912e+00 
6.840045e-01 
6.543420e-01 
6.248113e-01 
5.954395e-01 
5.662461e-01 
5.372524e-01 
5.084827e-01 
4.799656e-01 
4.517344e-01 
4.238281e-01 
3.962929e-01 
3.691835e-01 
3.425651e-01 
3.165152e-01 
2.911270e-01 
2.665125e-01 
2.428086e-01 
2.201836e-01 
1.988462e-01 
1.790544e-01 
1.611233e-01 
1.454297e-01 
1.324053e-01 
1.224915e-01 
1.159637e-01 
1.128016e-01 
1.147046e-01 
1.206288e-01 
1.298992e-01 
1.421972e-01 
1.571304e-01 
1.743033e-01 
1.933608e-01 
2.140013e-01 
2.359737e-01 
2.590716e-01 
2.831249e-01 
3.079931e-01 
3.335611e-01 
3.597335e-01 
3.864307e-01 
4.135862e-01 
4.411433e-01 
4.690544e-01 
4.972784e-01 
5.257805e-01 
5.545305e-01 
5.835023e-01 
6.126733e-01 
6.420237e-01 
6.715363e-01 
7.011959e-01 
7.309892e-01 
7.609042e-01 
7.909306e-01 
8.210590e-01 
8.512810e-01 
8.815893e-01 
9.119770e-01 
9.424382e-01 
9.729675e-01 
1.003560e+00 
1.034211e+00 
1.064917e+00 
6.730290e-01 
6.429800e-01 
6.130371e-01 
5.832250e-01 
5.535604e-01 
5.240612e-01 
4.947487e-01 
4.656474e-01 
4.367867e-01 
4.082012e-01 
3.799323e-01 
3.520297e-01 
3.245533e-01 
2.975750e-01 
2.711822e-01 
2.454812e-01 
2.206054e-01 
1.967236e-01 
1.740525e-01 
1.528698e-01 
1.335285e-01 
1.164712e-01 
1.022355e-01 
9.140885e-02 
8.436120e-02 
8.104654e-02 
8.303924e-02 
8.946891e-02 
9.957171e-02 
1.129676e-01 
1.291547e-01 
1.476419e-01 
1.680096e-01 
1.899173e-01 
2.130934e-01 
2.373220e-01 
2.624301e-01 
2.882792e-01 
3.147576e-01 
3.417745e-01 
3.692552e-01 
3.971376e-01 
4.253700e-01 
4.539091e-01 
4.827180e-01 
5.117655e-01 
5.410248e-01 
5.704730e-01 
6.000902e-01 
6.298593e-01 
6.597652e-01 
6.897949e-01 
7.199368e-01 
7.501809e-01 
7.805182e-01 
8.109406e-01 
8.414412e-01 
8.720136e-01 
9.026522e-01 
9.333519e-01 
9.641081e-01 
9.949167e-01 
1.025774e+00 
1.056677e+00 
6.631550e-01 
6.327476e-01 
6.024213e-01 
5.721988e-01 
5.420936e-01 
5.121206e-01 
4.822968e-01 
4.526428e-01 
4.231832e-01 
3.939474e-01 
3.649712e-01 
3.362980e-01 
3.079802e-01 
2.800812e-01 
2.526784e-01 
2.258685e-01 
1.997755e-01 
1.745624e-01 
1.504468e-01 
1.277183e-01 
1.067632e-01 
8.809540e-02 
7.238668e-02 
6.044645e-02 
5.278127e-02 
4.929679e-02 
5.137263e-02 
5.839957e-02 
6.950373e-02 
8.421537e-02 
1.018747e-01 
1.218631e-01 
1.436862e-01 
1.669670e-01 
1.914198e-01 
2.168257e-01 
2.430155e-01 
2.698572e-01 
2.972465e-01 
3.250999e-01 
3.533496e-01 
3.819404e-01 
4.108264e-01 
4.399697e-01 
4.693382e-01 
4.989051e-01 
5.286475e-01 
5.585458e-01 
5.885833e-01 
6.187455e-01 
6.490197e-01 
6.793951e-01 
7.098621e-01 
7.404122e-01 
7.710380e-01 
8.017330e-01 
8.324914e-01 
8.633080e-01 
8.941781e-01 
9.250976e-01 
9.560627e-01 
9.870702e-01 
1.018117e+00 
1.049200e+00 
6.544357e-01 
6.237030e-01 
5.930276e-01 
5.624302e-01 
5.319216e-01 
5.015132e-01 
4.712185e-01 
4.410533e-01 
4.110372e-01 
3.811938e-01 
3.515525e-01 
3.221487e-01 
2.930257e-01 
2.642354e-01 
2.358413e-01 
2.079243e-01 
1.805926e-01 
1.539946e-01 
1.283362e-01 
1.039045e-01 
8.110428e-02 
6.051519e-02 
4.297069e-02 
2.963700e-02 
2.122509e-02 
1.755038e-02 
1.970195e-02 
2.744856e-02 
3.978193e-02 
5.610324e-02 
7.551304e-02 
9.721899e-02 
1.206482e-01 
1.453991e-01 
1.711850e-01 
1.977958e-01 
2.250744e-01 
2.529016e-01 
2.811846e-01 
3.098504e-01 
3.388408e-01 
3.681085e-01 
3.976150e-01 
4.273286e-01 
4.572228e-01 
4.872753e-01 
5.174676e-01 
5.477837e-01 
5.782100e-01 
6.087348e-01 
6.393480e-01 
6.700409e-01 
7.008057e-01 
7.316357e-01 
7.625252e-01 
7.934688e-01 
8.244620e-01 
8.555006e-01 
8.865811e-01 
9.177002e-01 
9.488549e-01 
9.800427e-01 
1.011261e+00 
1.042508e+00 
6.469250e-01 
6.159044e-01 
5.849195e-01 
5.539893e-01 
5.231217e-01 
4.923248e-01 
4.616084e-01 
4.309841e-01 
4.004664e-01 
3.700732e-01 
3.398265e-01 
3.097533e-01 
2.798855e-01 
2.502610e-01 
2.209260e-01 