# vtk DataFile Version 2.0 
Quadtree Mesh 
ASCII 
DATASET UNSTRUCTURED_GRID 
POINTS 4096 double 
-1.000000e+00 -1.000000e+00 0.000000e+00
-9.682540e-01 -1.000000e+00 0.000000e+00
-9.365079e-01 -1.000000e+00 0.000000e+00
-9.047619e-01 -1.000000e+00 0.000000e+00
-8.730159e-01 -1.000000e+00 0.000000e+00
-8.412698e-01 -1.000000e+00 0.000000e+00
-8.095238e-01 -1.000000e+00 0.000000e+00
-7.777778e-01 -1.000000e+00 0.000000e+00
-7.460317e-01 -1.000000e+00 0.000000e+00
-7.142857e-01 -1.000000e+00 0.000000e+00
-6.825397e-01 -1.000000e+00 0.000000e+00
-6.507937e-01 -1.000000e+00 0.000000e+00
-6.190476e-01 -1.000000e+00 0.000000e+00
-5.873016e-01 -1.000000e+00 0.000000e+00
-5.555556e-01 -1.000000e+00 0.000000e+00
-5.238095e-01 -1.000000e+00 0.000000e+00
-4.920635e-01 -1.000000e+00 0.000000e+00
-4.603175e-01 -1.000000e+00 0.000000e+00
-4.285714e-01 -1.000000e+00 0.000000e+00
-3.968254e-01 -1.000000e+00 0.000000e+00
-3.650794e-01 -1.000000e+00 0.000000e+00
-3.333333e-01 -1.000000e+00 0.000000e+00
-3.015873e-01 -1.000000e+00 0.000000e+00
-2.698413e-01 -1.000000e+00 0.000000e+00
-2.380952e-01 -1.000000e+00 0.000000e+00
-2.063492e-01 -1.000000e+00 0.000000e+00
-1.746032e-01 -1.000000e+00 0.000000e+00
-1.428571e-01 -1.000000e+00 0.000000e+00
-1.111111e-01 -1.000000e+00 0.000000e+00
-7.936508e-02 -1.000000e+00 0.000000e+00
-4.761905e-02 -1.000000e+00 0.000000e+00
-1.587302e-02 -1.000000e+00 0.000000e+00
1.587302e-02 -1.000000e+00 0.000000e+00
4.761905e-02 -1.000000e+00 0.000000e+00
7.936508e-02 -1.000000e+00 0.000000e+00
1.111111e-01 -1.000000e+00 0.000000e+00
1.428571e-01 -1.000000e+00 0.000000e+00
1.746032e-01 -1.000000e+00 0.000000e+00
2.063492e-01 -1.000000e+00 0.000000e+00
2.380952e-01 -1.000000e+00 0.000000e+00
2.698413e-01 -1.000000e+00 0.000000e+00
3.015873e-01 -1.000000e+00 0.000000e+00
3.333333e-01 -1.000000e+00 0.000000e+00
3.650794e-01 -1.000000e+00 0.000000e+00
3.968254e-01 -1.000000e+00 0.000000e+00
4.285714e-01 -1.000000e+00 0.000000e+00
4.603175e-01 -1.000000e+00 0.000000e+00
4.920635e-01 -1.000000e+00 0.000000e+00
5.238095e-01 -1.000000e+00 0.000000e+00
5.555556e-01 -1.000000e+00 0.000000e+00
5.873016e-01 -1.000000e+00 0.000000e+00
6.190476e-01 -1.000000e+00 0.000000e+00
6.507937e-01 -1.000000e+00 0.000000e+00
6.825397e-01 -1.000000e+00 0.000000e+00
7.142857e-01 -1.000000e+00 0.000000e+00
7.460317e-01 -1.000000e+00 0.000000e+00
7.777778e-01 -1.000000e+00 0.000000e+00
8.095238e-01 -1.000000e+00 0.000000e+00
8.412698e-01 -1.000000e+00 0.000000e+00
8.730159e-01 -1.000000e+00 0.000000e+00
9.047619e-01 -1.000000e+00 0.000000e+00
9.365079e-01 -1.000000e+00 0.000000e+00
9.682540e-01 -1.000000e+00 0.000000e+00
1.000000e+00 -1.000000e+00 0.000000e+00
-1.000000e+00 -9.682540e-01 0.000000e+00
-9.682540e-01 -9.682540e-01 0.000000e+00
-9.365079e-01 -9.682540e-01 0.000000e+00
-9.047619e-01 -9.682540e-01 0.000000e+00
-8.730159e-01 -9.682540e-01 0.000000e+00
-8.412698e-01 -9.682540e-01 0.000000e+00
-8.095238e-01 -9.682540e-01 0.000000e+00
-7.777778e-01 -9.682540e-01 0.000000e+00
-7.460317e-01 -9.682540e-01 0.000000e+00
-7.142857e-01 -9.682540e-01 0.000000e+00
-6.825397e-01 -9.682540e-01 0.000000e+00
-6.507937e-01 -9.682540e-01 0.000000e+00
-6.190476e-01 -9.682540e-01 0.000000e+00
-5.873016e-01 -9.682540e-01 0.000000e+00
-5.555556e-01 -9.682540e-01 0.000000e+00
-5.238095e-01 -9.682540e-01 0.000000e+00
-4.920635e-01 -9.682540e-01 0.000000e+00
-4.603175e-01 -9.682540e-01 0.000000e+00
-4.285714e-01 -9.682540e-01 0.000000e+00
-3.968254e-01 -9.682540e-01 0.000000e+00
-3.650794e-01 -9.682540e-01 0.000000e+00
-3.333333e-01 -9.682540e-01 0.000000e+00
-3.015873e-01 -9.682540e-01 0.000000e+00
-2.698413e-01 -9.682540e-01 0.000000e+00
-2.380952e-01 -9.682540e-01 0.000000e+00
-2.063492e-01 -9.682540e-01 0.000000e+00
-1.746032e-01 -9.682540e-01 0.000000e+00
-1.428571e-01 -9.682540e-01 0.000000e+00
-1.111111e-01 -9.682540e-01 0.000000e+00
-7.936508e-02 -9.682540e-01 0.000000e+00
-4.761905e-02 -9.682540e-01 0.000000e+00
-1.587302e-02 -9.682540e-01 0.000000e+00
1.587302e-02 -9.682540e-01 0.000000e+00
4.761905e-02 -9.682540e-01 0.000000e+00
7.936508e-02 -9.682540e-01 0.000000e+00
1.111111e-01 -9.682540e-01 0.000000e+00
1.428571e-01 -9.682540e-01 0.000000e+00
1.746032e-01 -9.682540e-01 0.000000e+00
2.063492e-01 -9.682540e-01 0.000000e+00
2.380952e-01 -9.682540e-01 0.000000e+00
2.698413e-01 -9.682540e-01 0.000000e+00
3.015873e-01 -9.682540e-01 0.000000e+00
3.333333e-01 -9.682540e-01 0.000000e+00
3.650794e-01 -9.682540e-01 0.000000e+00
3.968254e-01 -9.682540e-01 0.000000e+00
4.285714e-01 -9.682540e-01 0.000000e+00
4.603175e-01 -9.682540e-01 0.000000e+00
4.920635e-01 -9.682540e-01 0.000000e+00
5.238095e-01 -9.682540e-01 0.000000e+00
5.555556e-01 -9.682540e-01 0.000000e+00
5.873016e-01 -9.682540e-01 0.000000e+00
6.190476e-01 -9.682540e-01 0.000000e+00
6.507937e-01 -9.682540e-01 0.000000e+00
6.825397e-01 -9.682540e-01 0.000000e+00
7.142857e-01 -9.682540e-01 0.000000e+00
7.460317e-01 -9.682540e-01 0.000000e+00
7.777778e-01 -9.682540e-01 0.000000e+00
8.095238e-01 -9.682540e-01 0.000000e+00
8.412698e-01 -9.682540e-01 0.000000e+00
8.730159e-01 -9.682540e-01 0.000000e+00
9.047619e-01 -9.682540e-01 0.000000e+00
9.365079e-01 -9.682540e-01 0.000000e+00
9.682540e-01 -9.682540e-01 0.000000e+00
1.000000e+00 -9.682540e-01 0.000000e+00
-1.000000e+00 -9.365079e-01 0.000000e+00
-9.682540e-01 -9.365079e-01 0.000000e+00
-9.365079e-01 -9.365079e-01 0.000000e+00
-9.047619e-01 -9.365079e-01 0.000000e+00
-8.730159e-01 -9.365079e-01 0.000000e+00
-8.412698e-01 -9.365079e-01 0.000000e+00
-8.095238e-01 -9.365079e-01 0.000000e+00
-7.777778e-01 -9.365079e-01 0.000000e+00
-7.460317e-01 -9.365079e-01 0.000000e+00
-7.142857e-01 -9.365079e-01 0.000000e+00
-6.825397e-01 -9.365079e-01 0.000000e+00
-6.507937e-01 -9.365079e-01 0.000000e+00
-6.190476e-01 -9.365079e-01 0.000000e+00
-5.873016e-01 -9.365079e-01 0.000000e+00
-5.555556e-01 -9.365079e-01 0.000000e+00
-5.238095e-01 -9.365079e-01 0.000000e+00
-4.920635e-01 -9.365079e-01 0.000000e+00
-4.603175e-01 -9.365079e-01 0.000000e+00
-4.285714e-01 -9.365079e-01 0.000000e+00
-3.968254e-01 -9.365079e-01 0.000000e+00
-3.650794e-01 -9.365079e-01 0.000000e+00
-3.333333e-01 -9.365079e-01 0.000000e+00
-3.015873e-01 -9.365079e-01 0.000000e+00
-2.698413e-01 -9.365079e-01 0.000000e+00
-2.380952e-01 -9.365079e-01 0.000000e+00
-2.063492e-01 -9.365079e-01 0.000000e+00
-1.746032e-01 -9.365079e-01 0.000000e+00
-1.428571e-01 -9.365079e-01 0.000000e+00
-1.111111e-01 -9.365079e-01 0.000000e+00
-7.936508e-02 -9.365079e-01 0.000000e+00
-4.761905e-02 -9.365079e-01 0.000000e+00
-1.587302e-02 -9.365079e-01 0.000000e+00
1.587302e-02 -9.365079e-01 0.000000e+00
4.761905e-02 -9.365079e-01 0.000000e+00
7.936508e-02 -9.365079e-01 0.000000e+00
1.111111e-01 -9.365079e-01 0.000000e+00
1.428571e-01 -9.365079e-01 0.000000e+00
1.746032e-01 -9.365079e-01 0.000000e+00
2.063492e-01 -9.365079e-01 0.000000e+00
2.380952e-01 -9.365079e-01 0.000000e+00
2.698413e-01 -9.365079e-01 0.000000e+00
3.015873e-01 -9.365079e-01 0.000000e+00
3.333333e-01 -9.365079e-01 0.000000e+00
3.650794e-01 -9.365079e-01 0.000000e+00
3.968254e-01 -9.365079e-01 0.000000e+00
4.285714e-01 -9.365079e-01 0.000000e+00
4.603175e-01 -9.365079e-01 0.000000e+00
4.920635e-01 -9.365079e-01 0.000000e+00
5.238095e-01 -9.365079e-01 0.000000e+00
5.555556e-01 -9.365079e-01 0.000000e+00
5.873016e-01 -9.365079e-01 0.000000e+00
6.190476e-01 -9.365079e-01 0.000000e+00
6.507937e-01 -9.365079e-01 0.000000e+00
6.825397e-01 -9.365079e-01 0.000000e+00
7.142857e-01 -9.365079e-01 0.000000e+00
7.460317e-01 -9.365079e-01 0.000000e+00
7.777778e-01 -9.365079e-01 0.000000e+00
8.095238e-01 -9.365079e-01 0.000000e+00
8.412698e-01 -9.365079e-01 0.000000e+00
8.730159e-01 -9.365079e-01 0.000000e+00
9.047619e-01 -9.365079e-01 0.000000e+00
9.365079e-01 -9.365079e-01 0.000000e+00
9.682540e-01 -9.365079e-01 0.000000e+00
1.000000e+00 -9.365079e-01 0.000000e+00
-1.000000e+00 -9.047619e-01 0.000000e+00
-9.682540e-01 -9.047619e-01 0.000000e+00
-9.365079e-01 -9.047619e-01 0.000000e+00
-9.047619e-01 -9.047619e-01 0.000000e+00
-8.730159e-01 -9.047619e-01 0.000000e+00
-8.412698e-01 -9.047619e-01 0.000000e+00
-8.095238e-01 -9.047619e-01 0.000000e+00
-7.777778e-01 -9.047619e-01 0.000000e+00
-7.460317e-01 -9.047619e-01 0.000000e+00
-7.142857e-01 -9.047619e-01 0.000000e+00
-6.825397e-01 -9.047619e-01 0.000000e+00
-6.507937e-01 -9.047619e-01 0.000000e+00
-6.190476e-01 -9.047619e-01 0.000000e+00
-5.873016e-01 -9.047619e-01 0.000000e+00
-5.555556e-01 -9.047619e-01 0.000000e+00
-5.238095e-01 -9.047619e-01 0.000000e+00
-4.920635e-01 -9.047619e-01 0.000000e+00
-4.603175e-01 -9.047619e-01 0.000000e+00
-4.285714e-01 -9.047619e-01 0.000000e+00
-3.968254e-01 -9.047619e-01 0.000000e+00
-3.650794e-01 -9.047619e-01 0.000000e+00
-3.333333e-01 -9.047619e-01 0.000000e+00
-3.015873e-01 -9.047619e-01 0.000000e+00
-2.698413e-01 -9.047619e-01 0.000000e+00
-2.380952e-01 -9.047619e-01 0.000000e+00
-2.063492e-01 -9.047619e-01 0.000000e+00
-1.746032e-01 -9.047619e-01 0.000000e+00
-1.428571e-01 -9.047619e-01 0.000000e+00
-1.111111e-01 -9.047619e-01 0.000000e+00
-7.936508e-02 -9.047619e-01 0.000000e+00
-4.761905e-02 -9.047619e-01 0.000000e+00
-1.587302e-02 -9.047619e-01 0.000000e+00
1.587302e-02 -9.047619e-01 0.000000e+00
4.761905e-02 -9.047619e-01 0.000000e+00
7.936508e-02 -9.047619e-01 0.000000e+00
1.111111e-01 -9.047619e-01 0.000000e+00
1.428571e-01 -9.047619e-01 0.000000e+00
1.746032e-01 -9.047619e-01 0.000000e+00
2.063492e-01 -9.047619e-01 0.000000e+00
2.380952e-01 -9.047619e-01 0.000000e+00
2.698413e-01 -9.047619e-01 0.000000e+00
3.015873e-01 -9.047619e-01 0.000000e+00
3.333333e-01 -9.047619e-01 0.000000e+00
3.650794e-01 -9.047619e-01 0.000000e+00
3.968254e-01 -9.047619e-01 0.000000e+00
4.285714e-01 -9.047619e-01 0.000000e+00
4.603175e-01 -9.047619e-01 0.000000e+00
4.920635e-01 -9.047619e-01 0.000000e+00
5.238095e-01 -9.047619e-01 0.000000e+00
5.555556e-01 -9.047619e-01 0.000000e+00
5.873016e-01 -9.047619e-01 0.000000e+00
6.190476e-01 -9.047619e-01 0.000000e+00
[...]
POINT_DATA 4096 
SCALARS concentration double 1 
LOOKUP_TABLE default 
1.316780e+00 
1.298173e+00 
1.280017e+00 
1.262307e+00 
1.245055e+00 
1.228275e+00 
1.211987e+00 
1.196206e+00 
1.180952e+00 
1.166242e+00 
1.152095e+00 
1.138530e+00 
1.125567e+00 
1.113228e+00 
1.101533e+00 
1.090503e+00 
1.080156e+00 
1.070513e+00 
1.061593e+00 
1.053413e+00 
1.045993e+00 
1.039348e+00 
1.033495e+00 
1.028449e+00 
1.024223e+00 
1.020831e+00 
1.018283e+00 
1.016588e+00 
1.015649e+00 
1.016047e+00 
1.017815e+00 
1.020697e+00 
1.024576e+00 
1.029388e+00 
1.035091e+00 
1.041655e+00 
1.049056e+00 
1.057269e+00 
1.066274e+00 
1.076048e+00 
1.086568e+00 
1.097813e+00 
1.109760e+00 
1.122386e+00 
1.135670e+00 
1.149588e+00 
1.164119e+00 
1.179241e+00 
1.194932e+00 
1.211171e+00 
1.227940e+00 
1.245217e+00 
1.262985e+00 
1.281225e+00 
1.299920e+00 
1.319054e+00 
1.338609e+00 
1.358571e+00 
1.378926e+00 
1.399659e+00 
1.420755e+00 
1.442201e+00 
1.463982e+00 
1.486093e+00 
1.291074e+00 
1.272158e+00 
1.253693e+00 
1.235674e+00 
1.218112e+00 
1.201026e+00 
1.184431e+00 
1.168348e+00 
1.152794e+00 
1.137790e+00 
1.123353e+00 
1.109505e+00 
1.096266e+00 
1.083659e+00 
1.071705e+00 
1.060427e+00 
1.049844e+00 
1.039977e+00 
1.030847e+00 
1.022473e+00 
1.014875e+00 
1.008069e+00 
1.002075e+00 
9.969076e-01 
9.925822e-01 
9.891118e-01 
9.865083e-01 
9.847805e-01 
9.838354e-01 
9.843062e-01 
9.861684e-01 
9.891593e-01 
9.931636e-01 
9.981162e-01 
1.003978e+00 
1.010718e+00 
1.018312e+00 
1.026735e+00 
1.035965e+00 
1.045978e+00 
1.056751e+00 
1.068261e+00 
1.080482e+00 
1.093393e+00 
1.106968e+00 
1.121185e+00 
1.136021e+00 
1.151452e+00 
1.167455e+00 
1.184011e+00 
1.201097e+00 
1.218694e+00 
1.236783e+00 
1.255344e+00 
1.274360e+00 
1.293814e+00 
1.313689e+00 
1.333970e+00 
1.354643e+00 
1.375691e+00 
1.397101e+00 
1.418856e+00 
1.440942e+00 
1.463354e+00 
1.265599e+00 
1.246366e+00 
1.227584e+00 
1.209247e+00 
1.191367e+00 
1.173964e+00 
1.157055e+00 
1.140659e+00 
1.124796e+00 
1.109486e+00 
1.094750e+00 
1.080608e+00 
1.067081e+00 
1.054195e+00 
1.041973e+00 
1.030435e+00 
1.019606e+00 
1.009505e+00 
1.000155e+00 
9.915777e-01 
9.837924e-01 
9.768190e-01 
9.706763e-01 
9.653816e-01 
9.609508e-01 
9.573982e-01 
9.547365e-01 
9.529747e-01 
9.520249e-01 
9.525724e-01 
9.545312e-01 
9.576344e-01 
9.617675e-01 
9.668669e-01 
9.728938e-01 
9.798184e-01 
9.876146e-01 
9.962577e-01 
1.005723e+00 
1.015987e+00 
1.027024e+00 
1.038808e+00 
1.051316e+00 
1.064522e+00 
1.078400e+00 
1.092927e+00 
1.108077e+00 
1.123827e+00 
1.140154e+00 
1.157035e+00 
1.174448e+00 
1.192374e+00 
1.210791e+00 
1.229681e+00 
1.249026e+00 
1.268808e+00 
1.289010e+00 
1.309616e+00 
1.330612e+00 
1.351979e+00 
1.373704e+00 
1.395771e+00 
1.418165e+00 
1.440878e+00 
1.240363e+00 
1.220806e+00 
1.201698e+00 
1.183034e+00 
1.164828e+00 
1.147099e+00 
1.129865e+00 
1.113147e+00 
1.096964e+00 
1.081338e+00 
1.066291e+00 
1.051844e+00 
1.038020e+00 
1.024844e+00 
1.012340e+00 
1.000533e+00 
9.894450e-01 
9.790998e-01 
9.695202e-01 
9.607290e-01 
9.527479e-01 
9.455980e-01 
9.392993e-01 
9.338706e-01 
9.293291e-01 
9.256903e-01 
9.229677e-01 
9.211706e-01 
9.202170e-01 
9.208452e-01 
9.229034e-01 
9.261223e-01 
9.303889e-01 
9.356414e-01 
9.418413e-01 
9.489587e-01 
9.569669e-01 
9.658400e-01 
9.755522e-01 
9.860775e-01 
9.973895e-01 
1.009462e+00 
1.022267e+00 
1.035780e+00 
1.049973e+00 
1.064821e+00 
1.080298e+00 
1.096378e+00 
1.113038e+00 
1.130255e+00 
1.148006e+00 
1.166270e+00 
1.185026e+00 
1.204255e+00 
1.223937e+00 
1.244056e+00 
1.264593e+00 
1.285532e+00 
1.306856e+00 
1.328548e+00 
1.350593e+00 
1.372975e+00 
1.395679e+00 
1.418697e+00 
1.215375e+00 
1.195487e+00 
1.176046e+00 
1.157047e+00 
1.138505e+00 
1.120440e+00 
1.102872e+00 
1.085821e+00 
1.069308e+00 
1.053356e+00 
1.037987e+00 
1.023223e+00 
1.009089e+00 
9.956110e-01 
9.828149e-01 
9.707255e-01 
9.593677e-01 
9.487663e-01 
9.389458e-01 
9.299305e-01 
9.217437e-01 
9.144082e-01 
9.079456e-01 
9.023759e-01 
8.977179e-01 
8.939883e-01 
8.912017e-01 
8.893681e-01 
8.884117e-01 
8.891247e-01 
8.912852e-01 
8.946236e-01 
8.990291e-01 
9.044413e-01 
9.108223e-01 
9.181420e-01 
9.263726e-01 
9.354868e-01 
9.454574e-01 
9.562567e-01 
9.678566e-01 
9.802289e-01 
9.933452e-01 
1.007178e+00 
1.021698e+00 
1.036879e+00 
1.052693e+00 
1.069115e+00 
1.086120e+00 
1.103684e+00 
1.121783e+00 
1.140396e+00 
1.159500e+00 
1.179077e+00 
1.199106e+00 
1.219569e+00 
1.240449e+00 
1.261727e+00 
1.283385e+00 
1.305407e+00 
1.327776e+00 
1.350478e+00 
1.373496e+00 
1.396823e+00 
1.190653e+00 
1.170427e+00 
1.150644e+00 
1.131301e+00 
1.112415e+00 
1.094005e+00 
1.076092e+00 
1.058698e+00 
1.041844e+00 
1.025553e+00 
1.009850e+00 
9.947574e-01 
9.803011e-01 
9.665087e-01 
9.534071e-01 
9.410229e-01 
9.293826e-01 
9.185126e-01 
9.084392e-01 
8.991883e-01 
8.907851e-01 
8.832541e-01 
8.766184e-01 
8.709000e-01 
8.661190e-01 
8.622936e-01 
8.594396e-01 
8.575679e-01 
8.566096e-01 
8.574111e-01 
8.596768e-01 
8.631388e-01 
8.676887e-01 
8.732681e-01 
8.798392e-01 
8.873714e-01 
8.958355e-01 
9.052030e-01 
9.154447e-01 
9.265311e-01 
9.384322e-01 
9.511181e-01 
9.645585e-01 
9.787236e-01 
9.935840e-01 
1.009111e+00 
1.025276e+00 
1.042052e+00 
1.059413e+00 
1.077335e+00 
1.095793e+00 
1.114765e+00 
1.134227e+00 
1.154161e+00 
1.174545e+00 
1.195361e+00 
1.216590e+00 
1.238213e+00 
1.260210e+00 
1.282567e+00 
1.305265e+00 
1.328290e+00 
1.351627e+00 
1.375265e+00 
1.166222e+00 
1.145651e+00 
1.125518e+00 
1.105822e+00 
1.086582e+00 
1.067816e+00 
1.049548e+00 
1.031798e+00 
1.014591e+00 
9.979494e-01 
9.818987e-01 
9.664640e-01 
9.516717e-01 
9.375508e-01 
9.241298e-01 
9.114368e-01 
8.995001e-01 
8.883478e-01 
8.780082e-01 
8.685091e-01 
8.598775e-01 
8.521398e-01 
8.453212e-01 
8.394454e-01 
8.345342e-01 
8.306074e-01 
8.276821e-01 
8.257704e-01 
8.248113e-01 
8.257051e-01 
8.280790e-01 
8.316689e-01 
8.363696e-01 
8.421241e-01 
8.488950e-01 
8.566507e-01 
8.653606e-01 
8.749943e-01 
8.855207e-01 
8.969082e-01 
9.091249e-01 
9.221386e-01 
9.359172e-01 
9.504290e-01 
9.656431e-01 
9.815289e-01 
9.980575e-01 
1.015201e+00 
1.032931e+00 
1.051222e+00 
1.070050e+00 
1.089391e+00 
1.109222e+00 
1.129522e+00 
1.150270e+00 
1.171447e+00 
1.193031e+00 
1.215003e+00 
1.237346e+00 
1.260041e+00 
1.283073e+00 
1.306425e+00 
1.330084e+00 
1.354037e+00 
1.142105e+00 
1.121179e+00 
1.100686e+00 
1.080627e+00 
1.061021e+00 
1.041889e+00 
1.023253e+00 
1.005135e+00 
9.875616e-01 
9.705559e-01 
9.541441e-01 
9.383528e-01 
9.232098e-01 
9.087455e-01 
8.949901e-01 
8.819733e-01 
8.697253e-01 
8.582763e-01 
8.476563e-01 
8.378952e-01 
8.290224e-01 
8.210663e-01 
8.140542e-01 
8.080116e-01 
8.029625e-01 
7.989283e-01 
7.959276e-01 
7.939740e-01 
7.930157e-01 
7.940072e-01 
7.964932e-01 
8.002163e-01 
8.050747e-01 
8.110134e-01 
8.179947e-01 
8.259859e-01 
8.349547e-01 
8.448686e-01 
8.556942e-01 
8.673978e-01 
8.799451e-01 
8.933017e-01 
9.074334e-01 
9.223066e-01 
9.378886e-01 
9.541478e-01 
9.710535e-01 
9.885763e-01 
1.006688e+00 
1.025361e+00 
1.044570e+00 
1.064291e+00 
1.084501e+00 
1.105177e+00 
1.126297e+00 
1.147840e+00 
1.169785e+00 
1.192113e+00 
1.214806e+00 
1.237845e+00 
1.261214e+00 
1.284898e+00 
1.308882e+00 
1.333153e+00 
1.118289e+00 
1.096998e+00 
1.076137e+00 
1.055707e+00 
1.035726e+00 
1.016218e+00 
9.972042e-01 
9.787093e-01 
9.607580e-01 
9.433765e-01 
9.265917e-01 
9.104312e-01 
8.949245e-01 
8.801032e-01 
8.659994e-01 
8.526448e-01 
8.400714e-01 
8.283115e-01 
8.173974e-01 
8.073611e-01 
7.982344e-01 
7.900479e-01 
7.828313e-01 
7.766124e-01 
7.714172e-01 
7.672691e-01 
7.641885e-01 
7.621907e-01 
7.612315e-01 
7.623079e-01 
7.649036e-01 
7.687622e-01 
7.737843e-01 
7.799156e-01 
7.871180e-01 
7.953571e-01 
8.045988e-01 
8.148080e-01 
8.259489e-01 
8.379851e-01 
8.508797e-01 
8.645961e-01 
8.790976e-01 
8.943487e-01 
9.103150e-01 
9.269633e-01 
9.442614e-01 
9.621786e-01 
9.806855e-01 
9.997540e-01 
1.019358e+00 
1.039471e+00 
1.060071e+00 
1.081133e+00 
1.102634e+00 
1.124553e+00 
1.146867e+00 
1.169558e+00 
1.192607e+00 
1.215997e+00 
1.239710e+00 
1.263731e+00 
1.288045e+00 
1.312639e+00 
1.094787e+00 
1.073125e+00 
1.051888e+00 
1.031077e+00 
1.010713e+00 
9.908181e-01 
9.714156e-01 
9.525306e-01 
9.341892e-01 
9.164183e-01 
8.992460e-01 
8.827016e-01 
8.668158e-01 
8.516218e-01 
8.371535e-01 
8.234446e-01 
8.105294e-01 
7.984422e-01 
7.872178e-01 
7.768909e-01 
7.674956e-01 
7.590652e-01 
7.516319e-01 
7.452261e-01 
7.398761e-01 
7.356074e-01 
7.324426e-01 
7.303990e-01 
7.294434e-01 
7.306208e-01 
7.333354e-01 
7.373387e-01 
7.425349e-01 
7.488710e-01 
7.563082e-01 
7.648105e-01 
7.743411e-01 
7.848623e-01 
7.963355e-01 
8.087213e-01 
8.219804e-01 
8.360731e-01 
8.509607e-01 
8.666057e-01 
8.829718e-01 
9.000239e-01 
9.177285e-01 
9.360534e-01 
9.549680e-01 
9.744434e-01 
9.944522e-01 
1.014968e+00 
1.035966e+00 
1.057421e+00 
1.079309e+00 
1.101608e+00 
1.124297e+00 
1.147355e+00 
1.170764e+00 
1.194507e+00 
1.218567e+00 
1.242927e+00 
1.267573e+00 
1.292490e+00 
1.071630e+00 
1.049589e+00 
1.027968e+00 
1.006768e+00 
9.860103e-01 
9.657178e-01 
9.459151e-01 
9.266278e-01 
9.078829e-01 
8.897087e-01 
8.721345e-01 
8.551908e-01 
8.389100e-01 
8.233268e-01 
8.084770e-01 
7.943966e-01 
7.811221e-01 
7.686903e-01 
7.571387e-01 
7.465045e-01 
7.368247e-01 
7.281355e-01 
7.204720e-01 
7.138674e-01 
7.083526e-01 
7.039557e-01 
7.007015e-01 
6.986094e-01 
6.976594e-01 
6.989408e-01 
7.017784e-01 
7.059331e-01 
7.113130e-01 
7.178662e-01 
7.255526e-01 
7.343340e-01 
7.441708e-01 
7.550221e-01 
7.668461e-01 
7.796005e-01 
7.932425e-01 
8.077300e-01 
8.230219e-01 
8.390784e-01 
8.558611e-01 
8.733333e-01 
8.914596e-01 
9.102067e-01 
9.295428e-01 
9.494379e-01 
9.698637e-01 
9.907925e-01 
1.012197e+00 
1.034053e+00 
1.056335e+00 
1.079020e+00 
1.102089e+00 
1.125519e+00 
1.149293e+00 
1.173393e+00 
1.197802e+00 
1.222503e+00 
1.247483e+00 
1.272725e+00 
1.048837e+00 
1.026411e+00 
1.004396e+00 
9.827983e-01 
9.616370e-01 
9.409364e-01 
9.207217e-01 
9.010195e-01 
8.818579e-01 
8.632660e-01 
8.452746e-01 
8.279158e-01 
8.112233e-01 
7.952334e-01 
7.799843e-01 
7.655141e-01 
7.518617e-01 
7.390667e-01 
7.271692e-01 
7.162096e-01 
7.062281e-01 
6.972639e-01 
6.893554e-01 
6.825389e-01 
6.768484e-01 
6.723147e-01 
6.689651e-01 
6.668220e-01 
6.658796e-01 
6.672679e-01 
6.702332e-01 
6.745469e-01 
6.801213e-01 
6.869049e-01 
6.948562e-01 
7.039342e-01 
7.140958e-01 
7.252968e-01 
7.374916e-01 
7.506345e-01 
7.646794e-01 
7.795813e-01 
7.952966e-01 
8.117831e-01 
8.290002e-01 
8.469091e-01 
8.654731e-01 
8.846574e-01 
9.044289e-01 
9.247567e-01 
9.456107e-01 
9.669619e-01 
9.887826e-01 
1.011047e+00 
1.033730e+00 
1.056809e+00 
1.080262e+00 
1.104070e+00 
1.128213e+00 
1.152674e+00 
1.177435e+00 
1.202480e+00 
1.227795e+00 
1.253365e+00 
1.026430e+00 
1.003610e+00 
9.811955e-01 
9.591899e-01 
9.376151e-01 
9.164956e-01 
8.958572e-01 
8.757274e-01 
8.561351e-01 
8.371108e-01 
8.186866e-01 
8.008959e-01 
7.837742e-01 
7.673595e-01 
7.516919e-01 
7.368123e-01 
7.227620e-01 
7.095836e-01 
6.973204e-01 
6.860158e-01 
6.757135e-01 
6.664565e-01 
6.582867e-01 
6.512438e-01 
6.453654e-01 
6.406855e-01 
6.372340e-01 
6.350366e-01 
6.341042e-01 
6.356025e-01 
6.387006e-01 
6.431819e-01 
6.489627e-01 
6.559918e-01 
6.642253e-01 
6.736190e-01 
6.841260e-01 
6.956978e-01 
7.082850e-01 
7.218379e-01 
7.363071e-01 
7.516445e-01 
7.678034e-01 
7.847393e-01 
8.024091e-01 
8.207723e-01 
8.397903e-01 
8.594270e-01 
8.796482e-01 
9.004211e-01 
9.217143e-01 
9.434976e-01 
9.657427e-01 
9.884232e-01 
1.011514e+00 
1.034993e+00 
1.058838e+00 
1.083028e+00 
1.107544e+00 
1.132369e+00 
1.157485e+00 
1.182876e+00 
1.208527e+00 
1.234426e+00 
1.004434e+00 
9.812151e-01 
9.583916e-01 
9.359696e-01 
9.139714e-01 
8.924220e-01 
8.713478e-01 
8.507773e-01 
8.307402e-01 
8.112682e-01 
7.923946e-01 
7.741546e-01 
7.565851e-01 
7.397260e-01 
7.236197e-01 
7.083096e-01 
6.938399e-01 
6.802563e-01 
6.676054e-01 
6.559343e-01 
6.452905e-01 
6.357210e-01 
6.272716e-01 
6.199863e-01 
6.139064e-01 
6.090694e-01 
6.055088e-01 
6.032536e-01 
6.023337e-01 
6.039451e-01 
6.071817e-01 
6.118401e-01 
6.178408e-01 
6.251319e-01 
6.336670e-01 
6.433975e-01 
6.542722e-01 
6.662380e-01 
6.792410e-01 
6.932272e-01 
7.081436e-01 
7.239386e-01 
7.405626e-01 
7.579681e-01 
7.761099e-01 
7.949454e-01 
8.144344e-01 
8.345392e-01 
8.552239e-01 
8.764542e-01 
8.981971e-01 
9.204221e-01 
9.431003e-01 
9.662049e-01 
9.897111e-01 
1.013595e+00 
1.037836e+00 
1.062412e+00 
1.087305e+00 
1.112497e+00 
1.137970e+00 
1.163708e+00 
1.189698e+00 
1.215925e+00 
9.828823e-01 
9.592574e-01 
9.360169e-01 
9.131693e-01 
8.907374e-01 
8.687465e-01 
8.472241e-01 
8.261990e-01 
8.057022e-01 
7.857663e-01 
7.664260e-01 
7.477179e-01 
7.296809e-01 
7.123566e-01 
6.957898e-01 
6.800265e-01 
6.651142e-01 
6.511016e-01 
6.380391e-01 
6.259780e-01 
6.149697e-01 
6.050659e-01 
5.963169e-01 
5.887712e-01 
5.824746e-01 
5.774687e-01 
5.737907e-01 
5.714734e-01 
5.705685e-01 
5.722952e-01 
5.756765e-01 
5.805228e-01 
5.867583e-01 
5.943301e-01 
6.031881e-01 
6.132788e-01 
6.245459e-01 
6.369310e-01 
6.503751e-01 
6.648197e-01 
6.802078e-01 
6.964842e-01 
7.135959e-01 
7.314926e-01 
7.501266e-01 
7.694532e-01 
7.894305e-01 
8.100190e-01 
8.311809e-01 
8.528805e-01 
8.750840e-01 
8.977603e-01 
9.208801e-01 
9.444163e-01 
9.683439e-01 
9.926393e-01 
1.017280e+00 
1.042247e+00 
1.067519e+00 
1.093079e+00 
1.118910e+00 
1.144998e+00 
1.171326e+00 
1.197884e+00 
9.618013e-01 
9.377624e-01 
9.140964e-01 
8.908136e-01 
8.679372e-01 
8.454934e-01 
8.235098e-01 
8.020161e-01 
7.810442e-01 
7.606277e-01 
7.408027e-01 
7.216074e-01 
7.030823e-01 
6.852710e-01 
6.682208e-01 
6.519805e-01 
6.366006e-01 
6.221337e-01 
6.086341e-01 
5.961573e-01 
5.847597e-01 
5.744978e-01 
5.654272e-01 
5.576015e-01 
5.510715e-01 
5.458835e-01 
5.420790e-01 
5.396953e-01 
5.388082e-01 
5.406530e-01 
5.441860e-01 
5.492326e-01 
5.557199e-01 
5.635933e-01 
5.727979e-01 
5.832748e-01 
5.949613e-01 
6.077932e-01 
6.217060e-01 
6.366361e-01 
6.525222e-01 
6.693051e-01 
6.869283e-01 
7.053385e-01 
7.244856e-01 
7.443227e-01 
7.648058e-01 
7.858934e-01 
8.075461e-01 
8.297270e-01 
8.524018e-01 
8.755388e-01 
8.991084e-01 
9.230835e-01 
9.474386e-01 
9.721501e-01 
9.971961e-01 
1.022556e+00 
1.048210e+00 
1.074141e+00 
1.100332e+00 
1.126769e+00 
1.153438e+00 
1.180325e+00 
9.411828e-01 
9.167220e-01 
8.926242e-01 
8.688991e-01 
8.455703e-01 
8.226641e-01 
8.002088e-01 
7.782348e-01 
7.567745e-01 
7.358628e-01 
7.155370e-01 
6.958367e-01 
6.768043e-01 
6.584853e-01 
6.409293e-01 
6.241882e-01 
6.083159e-01 
5.933690e-01 
5.794058e-01 
5.664869e-01 
5.546737e-01 
5.440285e-01 
5.346125e-01 
5.264855e-01 
5.197038e-01 
5.143193e-01 
5.103782e-01 
5.079227e-01 
5.070527e-01 
5.090112e-01 
5.127028e-01 
5.179631e-01 
5.247213e-01 
5.329196e-01 
5.424975e-01 
5.533894e-01 
5.655256e-01 
5.788350e-01 
5.932470e-01 
6.086926e-01 
6.251055e-01 
6.424221e-01 
6.605825e-01 
6.795302e-01 
6.992125e-01 
7.195802e-01 
7.405872e-01 
7.621900e-01 
7.843476e-01 
8.070226e-01 
8.301801e-01 
8.537878e-01 
8.778161e-01 
9.022375e-01 
9.270267e-01 
9.521599e-01 
9.776151e-01 
1.003372e+00 
1.029411e+00 
1.055715e+00 
1.082269e+00 
1.109058e+00 
1.136068e+00 
1.163287e+00 
9.210421e-01 
8.961573e-01 
8.716235e-01 
8.474507e-01 
8.236626e-01 
8.002858e-01 
7.773491e-01 
7.548832e-01 
7.329214e-01 
7.114996e-01 
6.906561e-01 
6.704321e-01 
6.508718e-01 
6.320227e-01 
6.139366e-01 
5.966687e-01 
5.802766e-01 
5.648207e-01 
5.503645e-01 
5.369735e-01 
5.247152e-01 
5.136580e-01 
5.038699e-01 
4.954174e-01 
4.883635e-01 
4.827665e-01 
4.786781e-01 
4.761459e-01 
4.753002e-01 
4.773832e-01 
4.812450e-01 
4.867364e-01 
4.937883e-01 
5.023388e-01 
5.123205e-01 
5.236596e-01 
5.362785e-01 
5.500984e-01 
5.650420e-01 
5.810343e-01 
5.980034e-01 
6.158814e-01 
6.346043e-01 
6.541125e-01 
6.743508e-01 
6.952675e-01 
7.168140e-01 
7.389452e-01 
7.616195e-01 
7.847984e-01 
8.084468e-01 
8.325321e-01 
8.570246e-01 
8.818966e-01 
9.071228e-01 
9.326796e-01 
9.585452e-01 
9.846993e-01 
1.011124e+00 
1.037802e+00 
1.064718e+00 
1.091858e+00 
1.119208e+00 
1.146757e+00 
9.014302e-01 
8.761183e-01 
8.511438e-01 
8.265172e-01 
8.022625e-01 
7.784064e-01 
7.549779e-01 
7.320082e-01 
7.095313e-01 
6.875838e-01 
6.662051e-01 
6.454379e-01 
6.253281e-01 
6.059252e-01 
5.872834e-01 
5.694610e-01 
5.525194e-01 
5.365237e-01 
5.215421e-01 
5.076462e-01 
4.949100e-01 
4.834088e-01 
4.732184e-01 
4.644129e-01 
4.570633e-01 
4.512350e-01 
4.469864e-01 
4.443710e-01 
4.435527e-01 
4.457632e-01 
4.498061e-01 
4.555471e-01 
4.629180e-01 
4.718511e-01 
4.822706e-01 
4.940930e-01 
5.072314e-01 
5.215985e-01 
5.371095e-01 
5.536824e-01 
5.712398e-01 
5.897087e-01 
6.090213e-01 
6.291147e-01 
6.499307e-01 
6.714150e-01 
6.935173e-01 
7.161911e-01 
7.393940e-01 
7.630871e-01 
7.872348e-01 
8.118046e-01 
8.367665e-01 
8.620930e-01 
8.877589e-01 
9.137407e-01 
9.400169e-01 
9.665682e-01 
9.933768e-01 
1.020426e+00 
1.047702e+00 
1.075189e+00 
1.102876e+00 
1.130749e+00 
8.823784e-01 
8.566368e-01 
8.312176e-01 
8.061321e-01 
7.814043e-01 
7.570610e-01 
7.331311e-01 
7.096464e-01 
6.866411e-01 
6.641526e-01 
6.422213e-01 
6.208912e-01 
6.002098e-01 
5.802286e-01 
5.610041e-01 
5.425979e-01 
5.250754e-01 
5.085063e-01 
4.929644e-01 
4.785277e-01 
4.652773e-01 
4.532966e-01 
4.426699e-01 
4.334805e-01 
4.258082e-01 
4.197273e-01 
4.153040e-01 
4.125981e-01 
4.118102e-01 
4.141518e-01 
4.183881e-01 
4.244002e-01 
4.321191e-01 
4.414696e-01 
4.523651e-01 
4.647111e-01 
4.784098e-01 
4.933644e-01 
5.094812e-01 
5.266712e-01 
5.448505e-01 
5.639413e-01 
5.838715e-01 
6.045749e-01 
6.259904e-01 
6.480611e-01 
6.707353e-01 
6.939655e-01 
7.177089e-01 
7.419260e-01 
7.665812e-01 
7.916417e-01 
8.170779e-01 
8.428623e-01 
8.689699e-01 
8.953777e-01 
9.220651e-01 
9.490130e-01 
9.762043e-01 
1.003623e+00 
1.031255e+00 
1.059086e+00 
1.087104e+00 
1.115298e+00 
8.639192e-01 
8.377460e-01 
8.118792e-01 
7.863307e-01 
7.611243e-01 
7.362866e-01 
7.118467e-01 
6.878362e-01 
6.642899e-01 
6.412455e-01 
6.187443e-01 
5.968314e-01 
5.755558e-01 
5.549711e-01 
5.351360e-01 
5.161153e-01 
4.979784e-01 
4.808000e-01 
4.646599e-01 
4.496430e-01 
4.358383e-01 
4.233384e-01 
4.122374e-01 
4.026289e-01 
3.946035e-01 
3.882458e-01 
3.836312e-01 
3.808264e-01 
3.800723e-01 
3.825493e-01 
3.869940e-01 
3.933021e-01 
4.014026e-01 
4.112102e-01 
4.226255e-01 
4.355403e-01 
4.498446e-01 
4.654305e-01 
4.821950e-01 
5.000408e-01 
5.188775e-01 
5.386222e-01 
5.591986e-01 
5.805370e-01 
6.025732e-01 
6.252486e-01 
6.485102e-01 
6.723101e-01 
6.966046e-01 
7.213544e-01 
7.465237e-01 
7.720800e-01 
7.979938e-01 
8.242382e-01 
8.507884e-01 
8.776224e-01 
9.047200e-01 
9.320630e-01 
9.596346e-01 
9.874195e-01 
1.015404e+00 
1.043574e+00 
1.071920e+00 
1.100429e+00 
8.460823e-01 
8.194771e-01 
7.931611e-01 
7.671466e-01 
7.414573e-01 
7.161194e-01 
6.911617e-01 
6.666159e-01 
6.425168e-01 
6.189024e-01 
5.958146e-01 
5.732994e-01 
5.514073e-01 
5.301936e-01 
5.097194e-01 
4.900521e-01 
4.712657e-01 
4.534398e-01 
4.366607e-01 
4.210206e-01 
4.066176e-01 
3.935544e-01 
3.819362e-01 
3.718688e-01 
3.634556e-01 
3.567932e-01 
3.519684e-01 
3.490554e-01 
3.483387e-01 
3.509565e-01 
3.556270e-01 
3.622606e-01 
3.707818e-01 
3.810926e-01 
3.930774e-01 
4.066122e-01 
4.215725e-01 
4.378379e-01 
4.552949e-01 
4.738376e-01 
4.933688e-01 
5.138003e-01 
5.350516e-01 
5.570493e-01 
5.797270e-01 
6.030246e-01 
6.268882e-01 
6.512693e-01 
6.761243e-01 
7.014138e-01 
7.271023e-01 
7.531577e-01 
7.795509e-01 
8.062555e-01 
8.332478e-01 
8.605064e-01 
8.880120e-01 
9.157469e-01 
9.436949e-01 
9.718415e-01 
1.000173e+00 
1.028678e+00 
1.057345e+00 
1.086163e+00 
8.288952e-01 
8.018606e-01 
7.750957e-01 
7.486144e-01 
7.224399e-01 
6.965979e-01 
6.711168e-01 
6.460281e-01 
6.213661e-01 
5.971693e-01 
5.734796e-01 
5.503438e-01 
5.278135e-01 
5.059456e-01 
4.848033e-01 