# vtk DataFile Version 2.0 
Quadtree Mesh 
ASCII 
DATASET UNSTRUCTURED_GRID 
POINTS 4096 double 
-1.000000e+00 -1.000000e+00 0.000000e+00
-9.682540e-01 -1.000000e+00 0.000000e+00
-9.365079e-01 -1.000000e+00 0.000000e+00
-9.047619e-01 -1.000000e+00 0.000000e+00
-8.730159e-01 -1.000000e+00 0.000000e+00
-8.412698e-01 -1.000000e+00 0.000000e+00
-8.095238e-01 -1.000000e+00 0.000000e+00
-7.777778e-01 -1.000000e+00 0.000000e+00
-7.460317e-01 -1.000000e+00 0.000000e+00
-7.142857e-01 -1.000000e+00 0.000000e+00
-6.825397e-01 -1.000000e+00 0.000000e+00
-6.507937e-01 -1.000000e+00 0.000000e+00
-6.190476e-01 -1.000000e+00 0.000000e+00
-5.873016e-01 -1.000000e+00 0.000000e+00
-5.555556e-01 -1.000000e+00 0.000000e+00
-5.238095e-01 -1.000000e+00 0.000000e+00
-4.920635e-01 -1.000000e+00 0.000000e+00
-4.603175e-01 -1.000000e+00 0.000000e+00
-4.285714e-01 -1.000000e+00 0.000000e+00
-3.968254e-01 -1.000000e+00 0.000000e+00
-3.650794e-01 -1.000000e+00 0.000000e+00
-3.333333e-01 -1.000000e+00 0.000000e+00
-3.015873e-01 -1.000000e+00 0.000000e+00
-2.698413e-01 -1.000000e+00 0.000000e+00
-2.380952e-01 -1.000000e+00 0.000000e+00
-2.063492e-01 -1.000000e+00 0.000000e+00
-1.746032e-01 -1.000000e+00 0.000000e+00
-1.428571e-01 -1.000000e+00 0.000000e+00
-1.111111e-01 -1.000000e+00 0.000000e+00
-7.936508e-02 -1.000000e+00 0.000000e+00
-4.761905e-02 -1.000000e+00 0.000000e+00
-1.587302e-02 -1.000000e+00 0.000000e+00
1.587302e-02 -1.000000e+00 0.000000e+00
4.761905e-02 -1.000000e+00 0.000000e+00
7.936508e-02 -1.000000e+00 0.000000e+00
1.111111e-01 -1.000000e+00 0.000000e+00
1.428571e-01 -1.000000e+00 0.000000e+00
1.746032e-01 -1.000000e+00 0.000000e+00
2.063492e-01 -1.000000e+00 0.000000e+00
2.380952e-01 -1.000000e+00 0.000000e+00
2.698413e-01 -1.000000e+00 0.000000e+00
3.015873e-01 -1.000000e+00 0.000000e+00
3.333333e-01 -1.000000e+00 0.000000e+00
3.650794e-01 -1.000000e+00 0.000000e+00
3.968254e-01 -1.000000e+00 0.000000e+00
4.285714e-01 -1.000000e+00 0.000000e+00
4.603175e-01 -1.000000e+00 0.000000e+00
4.920635e-01 -1.000000e+00 0.000000e+00
5.238095e-01 -1.000000e+00 0.000000e+00
5.555556e-01 -1.000000e+00 0.000000e+00
5.873016e-01 -1.000000e+00 0.000000e+00
6.190476e-01 -1.000000e+00 0.000000e+00
6.507937e-01 -1.000000e+00 0.000000e+00
6.825397e-01 -1.000000e+00 0.000000e+00
7.142857e-01 -1.000000e+00 0.000000e+00
7.460317e-01 -1.000000e+00 0.000000e+00
7.777778e-01 -1.000000e+00 0.000000e+00
8.095238e-01 -1.000000e+00 0.000000e+00
8.412698e-01 -1.000000e+00 0.000000e+00
8.730159e-01 -1.000000e+00 0.000000e+00
9.047619e-01 -1.000000e+00 0.000000e+00
9.365079e-01 -1.000000e+00 0.000000e+00
9.682540e-01 -1.000000e+00 0.000000e+00
1.000000e+00 -1.000000e+00 0.000000e+00
-1.000000e+00 -9.682540e-01 0.000000e+00
-9.682540e-01 -9.682540e-01 0.000000e+00
-9.365079e-01 -9.682540e-01 0.000000e+00
-9.047619e-01 -9.682540e-01 0.000000e+00
-8.730159e-01 -9.682540e-01 0.000000e+00
-8.412698e-01 -9.682540e-01 0.000000e+00
-8.095238e-01 -9.682540e-01 0.000000e+00
-7.777778e-01 -9.682540e-01 0.000000e+00
-7.460317e-01 -9.682540e-01 0.000000e+00
-7.142857e-01 -9.682540e-01 0.000000e+00
-6.825397e-01 -9.682540e-01 0.000000e+00
-6.507937e-01 -9.682540e-01 0.000000e+00
-6.190476e-01 -9.682540e-01 0.000000e+00
-5.873016e-01 -9.682540e-01 0.000000e+00
-5.555556e-01 -9.682540e-01 0.000000e+00
-5.238095e-01 -9.682540e-01 0.000000e+00
-4.920635e-01 -9.682540e-01 0.000000e+00
-4.603175e-01 -9.682540e-01 0.000000e+00
-4.285714e-01 -9.682540e-01 0.000000e+00
-3.968254e-01 -9.682540e-01 0.000000e+00
-3.650794e-01 -9.682540e-01 0.000000e+00
-3.333333e-01 -9.682540e-01 0.000000e+00
-3.015873e-01 -9.682540e-01 0.000000e+00
-2.698413e-01 -9.682540e-01 0.000000e+00
-2.380952e-01 -9.682540e-01 0.000000e+00
-2.063492e-01 -9.682540e-01 0.000000e+00
-1.746032e-01 -9.682540e-01 0.000000e+00
-1.428571e-01 -9.682540e-01 0.000000e+00
-1.111111e-01 -9.682540e-01 0.000000e+00
-7.936508e-02 -9.682540e-01 0.000000e+00
-4.761905e-02 -9.682540e-01 0.000000e+00
-1.587302e-02 -9.682540e-01 0.000000e+00
1.587302e-02 -9.682540e-01 0.000000e+00
4.761905e-02 -9.682540e-01 0.000000e+00
7.936508e-02 -9.682540e-01 0.000000e+00
1.111111e-01 -9.682540e-01 0.000000e+00
1.428571e-01 -9.682540e-01 0.000000e+00
1.746032e-01 -9.682540e-01 0.000000e+00
2.063492e-01 -9.682540e-01 0.000000e+00
2.380952e-01 -9.682540e-01 0.000000e+00
2.698413e-01 -9.682540e-01 0.000000e+00
3.015873e-01 -9.682540e-01 0.000000e+00
3.333333e-01 -9.682540e-01 0.000000e+00
3.650794e-01 -9.682540e-01 0.000000e+00
3.968254e-01 -9.682540e-01 0.000000e+00
4.285714e-01 -9.682540e-01 0.000000e+00
4.603175e-01 -9.682540e-01 0.000000e+00
4.920635e-01 -9.682540e-01 0.000000e+00
5.238095e-01 -9.682540e-01 0.000000e+00
5.555556e-01 -9.682540e-01 0.000000e+00
5.873016e-01 -9.682540e-01 0.000000e+00
6.190476e-01 -9.682540e-01 0.000000e+00
6.507937e-01 -9.682540e-01 0.000000e+00
6.825397e-01 -9.682540e-01 0.000000e+00
7.142857e-01 -9.682540e-01 0.000000e+00
7.460317e-01 -9.682540e-01 0.000000e+00
7.777778e-01 -9.682540e-01 0.000000e+00
8.095238e-01 -9.682540e-01 0.000000e+00
8.412698e-01 -9.682540e-01 0.000000e+00
8.730159e-01 -9.682540e-01 0.000000e+00
9.047619e-01 -9.682540e-01 0.000000e+00
9.365079e-01 -9.682540e-01 0.000000e+00
9.682540e-01 -9.682540e-01 0.000000e+00
1.000000e+00 -9.682540e-01 0.000000e+00
-1.000000e+00 -9.365079e-01 0.000000e+00
-9.682540e-01 -9.365079e-01 0.000000e+00
-9.365079e-01 -9.365079e-01 0.000000e+00
-9.047619e-01 -9.365079e-01 0.000000e+00
-8.730159e-01 -9.365079e-01 0.000000e+00
-8.412698e-01 -9.365079e-01 0.000000e+00
-8.095238e-01 -9.365079e-01 0.000000e+00
-7.777778e-01 -9.365079e-01 0.000000e+00
-7.460317e-01 -9.365079e-01 0.000000e+00
-7.142857e-01 -9.365079e-01 0.000000e+00
-6.825397e-01 -9.365079e-01 0.000000e+00
-6.507937e-01 -9.365079e-01 0.000000e+00
-6.190476e-01 -9.365079e-01 0.000000e+00
-5.873016e-01 -9.365079e-01 0.000000e+00
-5.555556e-01 -9.365079e-01 0.000000e+00
-5.238095e-01 -9.365079e-01 0.000000e+00
-4.920635e-01 -9.365079e-01 0.000000e+00
-4.603175e-01 -9.365079e-01 0.000000e+00
-4.285714e-01 -9.365079e-01 0.000000e+00
-3.968254e-01 -9.365079e-01 0.000000e+00
-3.650794e-01 -9.365079e-01 0.000000e+00
-3.333333e-01 -9.365079e-01 0.000000e+00
-3.015873e-01 -9.365079e-01 0.000000e+00
-2.698413e-01 -9.365079e-01 0.000000e+00
-2.380952e-01 -9.365079e-01 0.000000e+00
-2.063492e-01 -9.365079e-01 0.000000e+00
-1.746032e-01 -9.365079e-01 0.000000e+00
-1.428571e-01 -9.365079e-01 0.000000e+00
-1.111111e-01 -9.365079e-01 0.000000e+00
-7.936508e-02 -9.365079e-01 0.000000e+00
-4.761905e-02 -9.365079e-01 0.000000e+00
-1.587302e-02 -9.365079e-01 0.000000e+00
1.587302e-02 -9.365079e-01 0.000000e+00
4.761905e-02 -9.365079e-01 0.000000e+00
7.936508e-02 -9.365079e-01 0.000000e+00
1.111111e-01 -9.365079e-01 0.000000e+00
1.428571e-01 -9.365079e-01 0.000000e+00
1.746032e-01 -9.365079e-01 0.000000e+00
2.063492e-01 -9.365079e-01 0.000000e+00
2.380952e-01 -9.365079e-01 0.000000e+00
2.698413e-01 -9.365079e-01 0.000000e+00
3.015873e-01 -9.365079e-01 0.000000e+00
3.333333e-01 -9.365079e-01 0.000000e+00
3.650794e-01 -9.365079e-01 0.000000e+00
3.968254e-01 -9.365079e-01 0.000000e+00
4.285714e-01 -9.365079e-01 0.000000e+00
4.603175e-01 -9.365079e-01 0.000000e+00
4.920635e-01 -9.365079e-01 0.000000e+00
5.238095e-01 -9.365079e-01 0.000000e+00
5.555556e-01 -9.365079e-01 0.000000e+00
5.873016e-01 -9.365079e-01 0.000000e+00
6.190476e-01 -9.365079e-01 0.000000e+00
6.507937e-01 -9.365079e-01 0.000000e+00
6.825397e-01 -9.365079e-01 0.000000e+00
7.142857e-01 -9.365079e-01 0.000000e+00
7.460317e-01 -9.365079e-01 0.000000e+00
7.777778e-01 -9.365079e-01 0.000000e+00
8.095238e-01 -9.365079e-01 0.000000e+00
8.412698e-01 -9.365079e-01 0.000000e+00
8.730159e-01 -9.365079e-01 0.000000e+00
9.047619e-01 -9.365079e-01 0.000000e+00
9.365079e-01 -9.365079e-01 0.000000e+00
9.682540e-01 -9.365079e-01 0.000000e+00
1.000000e+00 -9.365079e-01 0.000000e+00
-1.000000e+00 -9.047619e-01 0.000000e+00
-9.682540e-01 -9.047619e-01 0.000000e+00
-9.365079e-01 -9.047619e-01 0.000000e+00
-9.047619e-01 -9.047619e-01 0.000000e+00
-8.730159e-01 -9.047619e-01 0.000000e+00
-8.412698e-01 -9.047619e-01 0.000000e+00
-8.095238e-01 -9.047619e-01 0.000000e+00
-7.777778e-01 -9.047619e-01 0.000000e+00
-7.460317e-01 -9.047619e-01 0.000000e+00
-7.142857e-01 -9.047619e-01 0.000000e+00
-6.825397e-01 -9.047619e-01 0.000000e+00
-6.507937e-01 -9.047619e-01 0.000000e+00
-6.190476e-01 -9.047619e-01 0.000000e+00
-5.873016e-01 -9.047619e-01 0.000000e+00
-5.555556e-01 -9.047619e-01 0.000000e+00
-5.238095e-01 -9.047619e-01 0.000000e+00
-4.920635e-01 -9.047619e-01 0.000000e+00
-4.603175e-01 -9.047619e-01 0.000000e+00
-4.285714e-01 -9.047619e-01 0.000000e+00
-3.968254e-01 -9.047619e-01 0.000000e+00
-3.650794e-01 -9.047619e-01 0.000000e+00
-3.333333e-01 -9.047619e-01 0.000000e+00
-3.015873e-01 -9.047619e-01 0.000000e+00
-2.698413e-01 -9.047619e-01 0.000000e+00
-2.380952e-01 -9.047619e-01 0.000000e+00
-2.063492e-01 -9.047619e-01 0.000000e+00
-1.746032e-01 -9.047619e-01 0.000000e+00
-1.428571e-01 -9.047619e-01 0.000000e+00
-1.111111e-01 -9.047619e-01 0.000000e+00
-7.936508e-02 -9.047619e-01 0.000000e+00
-4.761905e-02 -9.047619e-01 0.000000e+00
-1.587302e-02 -9.047619e-01 0.000000e+00
1.587302e-02 -9.047619e-01 0.000000e+00
4.761905e-02 -9.047619e-01 0.000000e+00
7.936508e-02 -9.047619e-01 0.000000e+00
1.111111e-01 -9.047619e-01 0.000000e+00
1.428571e-01 -9.047619e-01 0.000000e+00
1.746032e-01 -9.047619e-01 0.000000e+00
2.063492e-01 -9.047619e-01 0.000000e+00
2.380952e-01 -9.047619e-01 0.000000e+00
2.698413e-01 -9.047619e-01 0.000000e+00
3.015873e-01 -9.047619e-01 0.000000e+00
3.333333e-01 -9.047619e-01 0.000000e+00
3.650794e-01 -9.047619e-01 0.000000e+00
3.968254e-01 -9.047619e-01 0.000000e+00
4.285714e-01 -9.047619e-01 0.000000e+00
4.603175e-01 -9.047619e-01 0.000000e+00
4.920635e-01 -9.047619e-01 0.000000e+00
5.238095e-01 -9.047619e-01 0.000000e+00
5.555556e-01 -9.047619e-01 0.000000e+00
5.873016e-01 -9.047619e-01 0.000000e+00
6.190476e-01 -9.047619e-01 0.000000e+00
[...]
POINT_DATA 4096 
SCALARS concentration double 1 
LOOKUP_TABLE default 
1.237131e+00 
1.218829e+00 
1.201014e+00 
1.183680e+00 
1.166841e+00 
1.150514e+00 
1.134720e+00 
1.119477e+00 
1.104806e+00 
1.090728e+00 
1.077264e+00 
1.064435e+00 
1.052263e+00 
1.040768e+00 
1.029975e+00 
1.019907e+00 
1.010583e+00 
1.002025e+00 
9.942532e-01 
9.872856e-01 
9.811403e-01 
9.758337e-01 
9.713808e-01 
9.677943e-01 
9.650853e-01 
9.632591e-01 
9.621723e-01 
9.625514e-01 
9.643530e-01 
9.673039e-01 
9.712858e-01 
9.762307e-01 
9.820911e-01 
9.888314e-01 
9.964242e-01 
1.004845e+00 
1.014071e+00 
1.024078e+00 
1.034844e+00 
1.046346e+00 
1.058562e+00 
1.071467e+00 
1.085039e+00 
1.099256e+00 
1.114094e+00 
1.129531e+00 
1.145546e+00 
1.162117e+00 
1.179222e+00 
1.196842e+00 
1.214956e+00 
1.233545e+00 
1.252590e+00 
1.272073e+00 
1.291976e+00 
1.312282e+00 
1.332976e+00 
1.354041e+00 
1.375463e+00 
1.397227e+00 
1.419321e+00 
1.441730e+00 
1.464443e+00 
1.487452e+00 
1.211197e+00 
1.192573e+00 
1.174435e+00 
1.156779e+00 
1.139618e+00 
1.122972e+00 
1.106861e+00 
1.091305e+00 
1.076327e+00 
1.061947e+00 
1.048187e+00 
1.035071e+00 
1.022620e+00 
1.010858e+00 
9.998105e-01 
9.895001e-01 
9.799495e-01 
9.711810e-01 
9.632155e-01 
9.560736e-01 
9.497741e-01 
9.443350e-01 
9.397720e-01 
9.360991e-01 
9.333281e-01 
9.314641e-01 
9.303709e-01 
9.308246e-01 
9.327220e-01 
9.357854e-01 
9.398969e-01 
9.449894e-01 
9.510160e-01 
9.579406e-01 
9.657357e-01 
9.743760e-01 
9.838372e-01 
9.940952e-01 
1.005126e+00 
1.016904e+00 
1.029407e+00 
1.042609e+00 
1.056486e+00 
1.071015e+00 
1.086171e+00 
1.101932e+00 
1.118273e+00 
1.135173e+00 
1.152610e+00 
1.170563e+00 
1.189010e+00 
1.207931e+00 
1.227308e+00 
1.247120e+00 
1.267351e+00 
1.287983e+00 
1.308999e+00 
1.330384e+00 
1.352122e+00 
1.374199e+00 
1.396602e+00 
1.419316e+00 
1.442330e+00 
1.465637e+00 
1.185499e+00 
1.166544e+00 
1.148075e+00 
1.130086e+00 
1.112593e+00 
1.095618e+00 
1.079179e+00 
1.063300e+00 
1.048002e+00 
1.033308e+00 
1.019241e+00 
1.005825e+00 
9.930846e-01 
9.810437e-01 
9.697292e-01 
9.591656e-01 
9.493772e-01 
9.403874e-01 
9.322189e-01 
9.248936e-01 
9.184320e-01 
9.128531e-01 
9.081743e-01 
9.044104e-01 
9.015741e-01 
8.996708e-01 
8.985717e-01 
8.991038e-01 
9.010997e-01 
9.042791e-01 
9.085250e-01 
9.137714e-01 
9.199717e-01 
9.270898e-01 
9.350974e-01 
9.439683e-01 
9.536767e-01 
9.641973e-01 
9.755041e-01 
9.875717e-01 
1.000374e+00 
1.013885e+00 
1.028080e+00 
1.042933e+00 
1.058419e+00 
1.074514e+00 
1.091193e+00 
1.108433e+00 
1.126211e+00 
1.144505e+00 
1.163294e+00 
1.182556e+00 
1.202271e+00 
1.222421e+00 
1.242986e+00 
1.263949e+00 
1.285293e+00 
1.307003e+00 
1.329062e+00 
1.351456e+00 
1.374172e+00 
1.397195e+00 
1.420513e+00 
1.444119e+00 
1.160051e+00 
1.140756e+00 
1.121945e+00 
1.103614e+00 
1.085780e+00 
1.068463e+00 
1.051686e+00 
1.035471e+00 
1.019841e+00 
1.004821e+00 
9.904350e-01 
9.767075e-01 
9.636642e-01 
9.513317e-01 
9.397380e-01 
9.289093e-01 
9.188712e-01 
9.096489e-01 
9.012668e-01 
8.937485e-01 
8.871160e-01 
8.813899e-01 
8.765888e-01 
8.727290e-01 
8.698240e-01 
8.678798e-01 
8.667754e-01 
8.673890e-01 
8.694860e-01 
8.727850e-01 
8.771705e-01 
8.825775e-01 
8.889596e-01 
8.962805e-01 
9.045110e-01 
9.136236e-01 
9.235912e-01 
9.343866e-01 
9.459827e-01 
9.583520e-01 
9.714671e-01 
9.853007e-01 
9.998258e-01 
1.015016e+00 
1.030844e+00 
1.047284e+00 
1.064312e+00 
1.081903e+00 
1.100033e+00 
1.118679e+00 
1.137818e+00 
1.157429e+00 
1.177492e+00 
1.197986e+00 
1.218893e+00 
1.240195e+00 
1.261874e+00 
1.283915e+00 
1.306301e+00 
1.329018e+00 
1.352052e+00 
1.375388e+00 
1.399014e+00 
1.422924e+00 
1.134866e+00 
1.115221e+00 
1.096058e+00 
1.077375e+00 
1.059188e+00 
1.041519e+00 
1.024392e+00 
1.007829e+00 
9.918560e-01 
9.764969e-01 
9.617779e-01 
9.477253e-01 
9.343661e-01 
9.217290e-01 
9.098430e-01 
8.987361e-01 
8.884358e-01 
8.789690e-01 
8.703622e-01 
8.626404e-01 
8.558277e-01 
8.499462e-01 
8.450160e-01 
8.410549e-01 
8.380776e-01 
8.360907e-01 
8.349817e-01 
8.356797e-01 
8.378805e-01 
8.413032e-01 
8.458340e-01 
8.514088e-01 
8.579816e-01 
8.655154e-01 
8.739799e-01 
8.833463e-01 
8.935858e-01 
9.046694e-01 
9.165682e-01 
9.292530e-01 
9.426946e-01 
9.568641e-01 
9.717329e-01 
9.872725e-01 
1.003455e+00 
1.020254e+00 
1.037643e+00 
1.055596e+00 
1.074088e+00 
1.093096e+00 
1.112595e+00 
1.132565e+00 
1.152983e+00 
1.173830e+00 
1.195087e+00 
1.216734e+00 
1.238755e+00 
1.261133e+00 
1.283852e+00 
1.306897e+00 
1.330253e+00 
1.353907e+00 
1.377845e+00 
1.402063e+00 
1.109952e+00 
1.089948e+00 
1.070424e+00 
1.051378e+00 
1.032827e+00 
1.014796e+00 
9.973063e-01 
9.803837e-01 
9.640537e-01 
9.483425e-01 
9.332772e-01 
9.188859e-01 
9.051971e-01 
8.922413e-01 
8.800491e-01 
8.686504e-01 
8.580746e-01 
8.483507e-01 
8.395071e-01 
8.315708e-01 
8.245678e-01 
8.185221e-01 
8.134556e-01 
8.093876e-01 
8.063340e-01 
8.043028e-01 
8.031901e-01 
8.039759e-01 
8.062836e-01 
8.098346e-01 
8.145171e-01 
8.202681e-01 
8.270412e-01 
8.347990e-01 
8.435098e-01 
8.531431e-01 
8.636682e-01 
8.750542e-01 
8.872702e-01 
9.002850e-01 
9.140677e-01 
9.285875e-01 
9.438139e-01 
9.597172e-01 
9.762682e-01 
9.934383e-01 
1.011200e+00 
1.029526e+00 
1.048392e+00 
1.067771e+00 
1.087641e+00 
1.107978e+00 
1.128761e+00 
1.149969e+00 
1.171582e+00 
1.193582e+00 
1.215952e+00 
1.238672e+00 
1.261729e+00 
1.285106e+00 
1.308790e+00 
1.332765e+00 
1.357020e+00 
1.381548e+00 
1.085324e+00 
1.064954e+00 
1.045060e+00 
1.025641e+00 
1.006716e+00 
9.883097e-01 
9.704459e-01 
9.531507e-01 
9.364506e-01 
9.203735e-01 
9.049479e-01 
8.902032e-01 
8.761700e-01 
8.628806e-01 
8.503673e-01 
8.386620e-01 
8.277963e-01 
8.178014e-01 
8.087078e-01 
8.005448e-01 
7.933404e-01 
7.871209e-01 
7.819099e-01 
7.777285e-01 
7.745943e-01 
7.725165e-01 
7.714012e-01 
7.722788e-01 
7.746970e-01 
7.783814e-01 
7.832228e-01 
7.891587e-01 
7.961430e-01 
8.041369e-01 
8.131074e-01 
8.230218e-01 
8.338473e-01 
8.455510e-01 
8.580997e-01 
8.714602e-01 
8.855994e-01 
9.004845e-01 
9.160835e-01 
9.323647e-01 
9.492975e-01 
9.668518e-01 
9.849987e-01 
1.003710e+00 
1.022960e+00 
1.042722e+00 
1.062971e+00 
1.083685e+00 
1.104842e+00 
1.126419e+00 
1.148397e+00 
1.170757e+00 
1.193480e+00 
1.216549e+00 
1.239949e+00 
1.263663e+00 
1.287677e+00 
1.311978e+00 
1.336553e+00 
1.361394e+00 
1.061026e+00 
1.040286e+00 
1.020011e+00 
1.000207e+00 
9.808954e-01 
9.621008e-01 
9.438487e-01 
9.261661e-01 
9.090809e-01 
8.926221e-01 
8.768199e-01 
8.617051e-01 
8.473105e-01 
8.336703e-01 
8.208188e-01 
8.087902e-01 
7.976181e-01 
7.873363e-01 
7.779775e-01 
7.695736e-01 
7.621551e-01 
7.557503e-01 
7.503851e-01 
7.460827e-01 
7.428624e-01 
7.407352e-01 
7.396178e-01 
7.405910e-01 
7.431231e-01 
7.469462e-01 
7.519536e-01 
7.580840e-01 
7.652907e-01 
7.735339e-01 
7.827784e-01 
7.929892e-01 
8.041311e-01 
8.161689e-01 
8.290668e-01 
8.427894e-01 
8.573014e-01 
8.725680e-01 
8.885550e-01 
9.052292e-01 
9.225581e-01 
9.405102e-01 
9.590552e-01 
9.781642e-01 
9.978094e-01 
1.017964e+00 
1.038604e+00 
1.059704e+00 
1.081242e+00 
1.103197e+00 
1.125546e+00 
1.148272e+00 
1.171355e+00 
1.194779e+00 
1.218526e+00 
1.242582e+00 
1.266932e+00 
1.291562e+00 
1.316460e+00 
1.341618e+00 
1.037087e+00 
1.015959e+00 
9.952901e-01 
9.750891e-01 
9.553780e-01 
9.361819e-01 
9.175275e-01 
8.994429e-01 
8.819573e-01 
8.651012e-01 
8.489060e-01 
8.334046e-01 
8.186311e-01 
8.046227e-01 
7.914157e-01 
7.790463e-01 
7.675508e-01 
7.569654e-01 
7.473257e-01 
7.386662e-01 
7.310200e-01 
7.244179e-01 
7.188885e-01 
7.144570e-01 
7.111447e-01 
7.089651e-01 
7.078436e-01 
7.089030e-01 
7.115482e-01 
7.155138e-01 
7.206945e-01 
7.270292e-01 
7.344704e-01 
7.429766e-01 
7.525101e-01 
7.630334e-01 
7.745087e-01 
7.868980e-01 
8.001629e-01 
8.142654e-01 
8.291678e-01 
8.448331e-01 
8.612251e-01 
8.783084e-01 
8.960490e-01 
9.144138e-01 
9.333710e-01 
9.528908e-01 
9.729443e-01 
9.935043e-01 
1.014545e+00 
1.036042e+00 
1.057971e+00 
1.080311e+00 
1.103040e+00 
1.126139e+00 
1.149590e+00 
1.173374e+00 
1.197475e+00 
1.221879e+00 
1.246569e+00 
1.271533e+00 
1.296758e+00 
1.322237e+00 
1.013446e+00 
9.919182e-01 
9.708480e-01 
9.502411e-01 
9.301203e-01 
9.105119e-01 
8.914434e-01 
8.729442e-01 
8.550446e-01 
8.377767e-01 
8.211736e-01 
8.052698e-01 
7.901017e-01 
7.757086e-01 
7.621290e-01 
7.494018e-01 
7.375661e-01 
7.266609e-01 
7.167246e-01 
7.077949e-01 
6.999078e-01 
6.930971e-01 
6.873939e-01 
6.828261e-01 
6.794173e-01 
6.771835e-01 
6.760626e-01 
6.772227e-01 
6.799906e-01 
6.841088e-01 
6.894748e-01 
6.960276e-01 
7.037185e-01 
7.125038e-01 
7.223434e-01 
7.331972e-01 
7.450243e-01 
7.577835e-01 
7.714339e-01 
7.859345e-01 
8.012450e-01 
8.173261e-01 
8.341393e-01 
8.516473e-01 
8.698142e-01 
8.886052e-01 
9.079875e-01 
9.279301e-01 
9.484033e-01 
9.693790e-01 
9.908305e-01 
1.012733e+00 
1.035061e+00 
1.057794e+00 
1.080910e+00 
1.104388e+00 
1.128211e+00 
1.152360e+00 
1.176819e+00 
1.201573e+00 
1.226607e+00 
1.251908e+00 
1.277463e+00 
1.303265e+00 
9.901617e-01 
9.682297e-01 
9.467482e-01 
9.257245e-01 
9.051824e-01 
8.851489e-01 
8.656527e-01 
8.467242e-01 
8.283952e-01 
8.106992e-01 
7.936710e-01 
7.773471e-01 
7.617658e-01 
7.469688e-01 
7.329973e-01 
7.198929e-01 
7.076975e-01 
6.964535e-01 
6.862025e-01 
6.769854e-01 
6.688417e-01 
6.618084e-01 
6.559197e-01 
6.512064e-01 
6.476947e-01 
6.454036e-01 
6.442847e-01 
6.455484e-01 
6.484440e-01 
6.527227e-01 
6.582848e-01 
6.650693e-01 
6.730258e-01 
6.821083e-01 
6.922736e-01 
7.034782e-01 
7.156780e-01 
7.288284e-01 
7.428852e-01 
7.578045e-01 
7.735432e-01 
7.900593e-01 
8.073121e-01 
8.252621e-01 
8.438716e-01 
8.631043e-01 
8.829264e-01 
9.033055e-01 
9.242109e-01 
9.456136e-01 
9.674861e-01 
9.898027e-01 
1.012539e+00 
1.035672e+00 
1.059180e+00 
1.083043e+00 
1.107243e+00 
1.131762e+00 
1.156582e+00 
1.181690e+00 
1.207071e+00 
1.232710e+00 
1.258596e+00 
1.284720e+00 
9.672615e-01 
9.449161e-01 
9.230136e-01 
9.015623e-01 
8.805872e-01 
8.601159e-01 
8.401782e-01 
8.208055e-01 
8.020312e-01 
7.838901e-01 
7.664189e-01 
7.496559e-01 
7.336419e-01 
7.184208e-01 
7.040365e-01 
6.905337e-01 
6.779577e-01 
6.663541e-01 
6.557684e-01 
6.462451e-01 
6.378275e-01 
6.305561e-01 
6.244689e-01 
6.195997e-01 
6.159779e-01 
6.136260e-01 
6.125105e-01 
6.138806e-01 
6.169091e-01 
6.213571e-01 
6.271274e-01 
6.341585e-01 
6.423980e-01 
6.517969e-01 
6.623086e-01 
6.738855e-01 
6.864799e-01 
7.000436e-01 
7.145287e-01 
7.298881e-01 
7.460757e-01 
7.630467e-01 
7.807579e-01 
7.991677e-01 
8.182365e-01 
8.379269e-01 
8.582034e-01 
8.790324e-01 
9.003822e-01 
9.222230e-01 
9.445267e-01 
9.672668e-01 
9.904186e-01 
1.013959e+00 
1.037866e+00 
1.062120e+00 
1.086702e+00 
1.111594e+00 
1.136780e+00 
1.162245e+00 
1.187975e+00 
1.213954e+00 
1.240171e+00 
1.266615e+00 
9.447712e-01 
9.220035e-01 
8.996704e-01 
8.777810e-01 
8.563609e-01 
8.354389e-01 
8.150455e-01 
7.952135e-01 
7.759772e-01 
7.573733e-01 
7.394402e-01 
7.222183e-01 
7.057506e-01 
6.900835e-01 
6.752640e-01 
6.613401e-01 
6.483605e-01 
6.363748e-01 
6.254323e-01 
6.155820e-01 
6.068711e-01 
5.993447e-01 
5.930443e-01 
5.880076e-01 
5.842676e-01 
5.818509e-01 
5.807403e-01 
5.822196e-01 
5.853869e-01 
5.900140e-01 
5.960061e-01 
6.033005e-01 
6.118422e-01 
6.215788e-01 
6.324592e-01 
6.444320e-01 
6.574448e-01 
6.714455e-01 
6.863823e-01 
7.022045e-01 
7.188628e-01 
7.363095e-01 
7.544987e-01 
7.733868e-01 
7.929325e-01 
8.130966e-01 
8.338423e-01 
8.551347e-01 
8.769412e-01 
8.992311e-01 
9.219757e-01 
9.451482e-01 
9.687233e-01 
9.926779e-01 
1.016990e+00 
1.041640e+00 
1.066608e+00 
1.091878e+00 
1.117433e+00 
1.143258e+00 
1.169337e+00 
1.195656e+00 
1.222203e+00 
1.248967e+00 
9.227167e-01 
8.995177e-01 
8.767443e-01 
8.544060e-01 
8.325291e-01 
8.111432e-01 
7.902797e-01 
7.699723e-01 
7.502570e-01 
7.311718e-01 
7.127569e-01 
6.950550e-01 
6.781114e-01 
6.619752e-01 
6.466965e-01 
6.323268e-01 
6.189189e-01 
6.065263e-01 
5.952031e-01 
5.850029e-01 
5.759776e-01 
5.681771e-01 
5.616475e-01 
5.564307e-01 
5.525636e-01 
5.500775e-01 
5.489738e-01 
5.505650e-01 
5.538779e-01 
5.586955e-01 
5.649246e-01 
5.725012e-01 
5.813666e-01 
5.914642e-01 
6.027383e-01 
6.151324e-01 
6.285895e-01 
6.430528e-01 
6.584663e-01 
6.747755e-01 
6.919276e-01 
7.098717e-01 
7.285596e-01 
7.479453e-01 
7.679857e-01 
7.886398e-01 
8.098695e-01 
8.316387e-01 
8.539139e-01 
8.766637e-01 
8.998588e-01 
9.234720e-01 
9.474780e-01 
9.718532e-01 
9.965761e-01 
1.021627e+00 
1.046986e+00 
1.072637e+00 
1.098562e+00 
1.124747e+00 
1.151175e+00 
1.177834e+00 
1.204709e+00 
1.231792e+00 
9.011171e-01 
8.774806e-01 
8.542579e-01 
8.314604e-01 
8.091152e-01 
7.872524e-01 
7.659044e-01 
7.451060e-01 
7.248943e-01 
7.053089e-01 
6.863920e-01 
6.681883e-01 
6.507458e-01 
6.341160e-01 
6.183526e-01 
6.035109e-01 
5.896479e-01 
5.768218e-01 
5.650918e-01 
5.545165e-01 
5.451535e-01 
5.370580e-01 
5.302812e-01 
5.248700e-01 
5.208658e-01 
5.183056e-01 
5.172106e-01 
5.189171e-01 
5.223834e-01 
5.274042e-01 
5.338879e-01 
5.417677e-01 
5.509808e-01 
5.614656e-01 
5.731608e-01 
5.860043e-01 
5.999338e-01 
6.148874e-01 
6.308045e-01 
6.476263e-01 
6.652964e-01 
6.837610e-01 
7.029689e-01 
7.228722e-01 
7.434252e-01 
7.645858e-01 
7.863141e-01 
8.085733e-01 
8.313289e-01 
8.545489e-01 
8.782036e-01 
9.022655e-01 
9.267091e-01 
9.515111e-01 
9.766497e-01 
1.002105e+00 
1.027858e+00 
1.053892e+00 
1.080188e+00 
1.106732e+00 
1.133509e+00 
1.160505e+00 
1.187708e+00 
1.215107e+00 
8.800133e-01 
8.559357e-01 
8.322550e-01 
8.089882e-01 
7.861631e-01 
7.638104e-01 
7.419633e-01 
7.206576e-01 
6.999316e-01 
6.798264e-01 
6.603858e-01 
6.416571e-01 
6.236906e-01 
6.065407e-01 
5.902648e-01 
5.749222e-01 
5.605745e-01 
5.472851e-01 
5.351187e-01 
5.241399e-01 
5.144126e-01 
5.059980e-01 
4.989534e-01 
4.933313e-01 
4.891783e-01 
4.865377e-01 
4.854532e-01 
4.872780e-01 
4.909059e-01 
4.961442e-01 
5.029017e-01 
5.111081e-01 
5.206957e-01 
5.315966e-01 
5.437433e-01 
5.570671e-01 
5.714997e-01 
5.869735e-01 
6.034229e-01 
6.207847e-01 
6.389986e-01 
6.580074e-01 
6.777576e-01 
6.981983e-01 
7.192823e-01 
7.409657e-01 
7.632074e-01 
7.859695e-01 
8.092169e-01 
8.329170e-01 
8.570399e-01 
8.815578e-01 
9.064454e-01 
9.316792e-01 
9.572377e-01 
9.831007e-01 
1.009249e+00 
1.035665e+00 
1.062331e+00 
1.089234e+00 
1.116357e+00 
1.143689e+00 
1.171217e+00 
1.198930e+00 
8.594529e-01 
8.349218e-01 
8.107737e-01 
7.870272e-01 
7.637104e-01 
7.408547e-01 
7.184938e-01 
6.966644e-01 
6.754058e-01 
6.547607e-01 
6.347747e-01 
6.154969e-01 
5.969804e-01 
5.792827e-01 
5.624650e-01 
5.465908e-01 
5.317268e-01 
5.179420e-01 
5.053072e-01 
4.938938e-01 
4.837728e-01 
4.750125e-01 
4.676771e-01 
4.618254e-01 
4.575102e-01 
4.547814e-01 
4.537024e-01 
4.556346e-01 
4.594307e-01 
4.649013e-01 
4.719538e-01 
4.805131e-01 
4.905049e-01 
5.018544e-01 
5.144863e-01 
5.283247e-01 
5.432945e-01 
5.593218e-01 
5.763355e-01 
5.942676e-01 
6.130536e-01 
6.326331e-01 
6.529494e-01 
6.739495e-01 
6.955843e-01 
7.178083e-01 
7.405792e-01 
7.638583e-01 
7.876098e-01 
8.118008e-01 
8.364012e-01 
8.613832e-01 
8.867217e-01 
9.123930e-01 
9.383755e-01 
9.646488e-01 
9.911938e-01 
1.017993e+00 
1.045030e+00 
1.072291e+00 
1.099761e+00 
1.127427e+00 
1.155278e+00 
1.183303e+00 
8.393995e-01 
8.144063e-01 
7.897858e-01 
7.655532e-01 
7.417367e-01 
7.183681e-01 
6.954815e-01 
6.731143e-01 
6.513071e-01 
6.301037e-01 
6.095514e-01 
5.897015e-01 
5.706095e-01 
5.523363e-01 
5.349467e-01 
5.185091e-01 
5.030954e-01 
4.887809e-01 
4.756434e-01 
4.637619e-01 
4.532153e-01 
4.440804e-01 
4.364294e-01 
4.303285e-01 
4.258378e-01 
4.230152e-01 
4.219498e-01 
4.240051e-01 
4.279850e-01 
4.337093e-01 
4.410839e-01 
4.500275e-01 
4.604581e-01 
4.722922e-01 
4.854460e-01 
4.998356e-01 
5.153781e-01 
5.319928e-01 
5.496026e-01 
5.681347e-01 
5.875203e-01 
6.076954e-01 
6.286003e-01 
6.501796e-01 
6.723825e-01 
6.951619e-01 
7.184748e-01 
7.422816e-01 
7.665461e-01 
7.912355e-01 
8.163193e-01 
8.417702e-01 
8.675628e-01 
8.936733e-01 
9.200799e-01 
9.467624e-01 
9.737023e-01 
1.000883e+00 
1.028288e+00 
1.055903e+00 
1.083715e+00 
1.111712e+00 
1.139882e+00 
1.168215e+00 
8.199198e-01 
7.944648e-01 
7.693664e-01 
7.446404e-01 
7.203153e-01 
6.964229e-01 
6.729979e-01 
6.500782e-01 
6.277051e-01 
6.059236e-01 
5.847828e-01 
5.643358e-01 
5.446409e-01 
5.257617e-01 
5.077673e-01 
4.907310e-01 
4.747305e-01 
4.598479e-01 
4.461686e-01 
4.337805e-01 
4.227716e-01 
4.132282e-01 
4.052323e-01 
3.988589e-01 
3.941762e-01 
3.912513e-01 
3.902013e-01 
3.923831e-01 
3.965600e-01 
4.025600e-01 
4.102859e-01 
4.196487e-01 
4.305566e-01 
4.429164e-01 
4.566341e-01 
4.716164e-01 
4.877717e-01 
5.050120e-01 
5.232539e-01 
5.424191e-01 
5.624344e-01 
5.832319e-01 
6.047492e-01 
6.269287e-01 
6.497177e-01 
6.730681e-01 
6.969359e-01 
7.212813e-01 
7.460678e-01 
7.712625e-01 
7.968351e-01 
8.227581e-01 
8.490058e-01 
8.755549e-01 
9.023837e-01 
9.294728e-01 
9.568042e-01 
9.843614e-01 
1.012129e+00 
1.040094e+00 
1.068243e+00 
1.096564e+00 
1.125047e+00 
1.153681e+00 
8.010547e-01 
7.751347e-01 
7.495539e-01 
7.243285e-01 
6.994870e-01 
6.750612e-01 
6.510859e-01 
6.275995e-01 
6.046437e-01 
5.822648e-01 
5.605130e-01 
5.394435e-01 
5.191170e-01 
4.996000e-01 
4.809659e-01 
4.632931e-01 
4.466654e-01 
4.311723e-01 
4.169080e-01 
4.039700e-01 
3.924570e-01 
3.824669e-01 
3.740926e-01 
3.674199e-01 
3.625262e-01 
3.594895e-01 
3.584565e-01 
3.607689e-01 
3.651583e-01 
3.714598e-01 
3.795708e-01 
3.893925e-01 
4.008216e-01 
4.137528e-01 
4.280806e-01 
4.437007e-01 
4.605122e-01 
4.784189e-01 
4.973305e-01 
5.171630e-01 
5.378385e-01 
5.592857e-01 
5.814390e-01 
6.042390e-01 
6.276316e-01 
6.515675e-01 
6.760025e-01 
7.008962e-01 
7.262124e-01 
7.519180e-01 
7.779829e-01 
8.043794e-01 
8.310824e-01 
8.580689e-01 
8.853182e-01 
9.128113e-01 
9.405308e-01 
9.684611e-01 
9.965875e-01 
1.024897e+00 
1.053377e+00 
1.082017e+00 
1.110807e+00 
1.139737e+00 
7.828418e-01 
7.564553e-01 
7.303889e-01 
7.046594e-01 
6.792950e-01 
6.543273e-01 
6.297910e-01 
6.057245e-01 
5.821702e-01 
5.591746e-01 
5.367896e-01 
5.150718e-01 
4.940842e-01 
4.738964e-01 
4.545857e-01 
4.362358e-01 
4.189372e-01 
4.027874e-01 
3.878899e-01 
3.743535e-01 
3.622893e-01 
3.518084e-01 
3.430175e-01 
3.360146e-01 
3.308885e-01 
3.277291e-01 
3.267149e-01 
3.291624e-01 
3.337829e-01 
3.404159e-01 
3.489514e-01 
3.592780e-01 
3.712784e-01 
3.848328e-01 
3.998223e-01 
4.161302e-01 
4.336451e-01 
4.522619e-01 
4.718830e-01 
4.924183e-01 
5.137853e-01 
5.359091e-01 
5.587218e-01 
5.821620e-01 
6.061743e-01 
6.307092e-01 
6.557218e-01 
6.811720e-01 
7.070235e-01 
7.332433e-01 
7.598017e-01 
7.866714e-01 
8.138281e-01 
8.412496e-01 
8.689158e-01 
8.968087e-01 
9.249117e-01 
9.532096e-01 
9.816887e-01 
1.010337e+00 
1.039142e+00 
1.068095e+00 
1.097185e+00 
1.126404e+00 
7.653171e-01 
7.384642e-01 
7.119106e-01 
6.856740e-01 
6.597820e-01 
6.342655e-01 
6.091589e-01 
5.845005e-01 
5.603327e-01 
5.367026e-01 
5.136625e-01 
4.912710e-01 
4.695927e-01 
4.487002e-01 
4.286746e-01 
4.096049e-01 
3.915885e-01 
3.747313e-01 
3.591475e-01 
3.449583e-01 
3.322894e-01 
3.212676e-01 
3.120157e-01 
3.046473e-01 
2.992639e-01 
2.959694e-01 
2.949755e-01 
2.975638e-01 
3.024372e-01 
3.094372e-01 
3.184434e-01 
3.293285e-01 
3.419575e-01 
3.561940e-01 
3.719030e-01 
3.889541e-01 
4.072238e-01 
4.265975e-01 
4.469697e-01 
4.682442e-01 
4.903342e-01 
5.131614e-01 
5.366557e-01 
5.607543e-01 
5.854011e-01 
6.105462e-01 
6.361449e-01 
6.621572e-01 
6.885470e-01 
7.152819e-01 
7.423328e-01 
7.696734e-01 
7.972804e-01 
8.251324e-01 
8.532105e-01 
8.814972e-01 
9.099769e-01 
9.386355e-01 
9.674601e-01 
9.964392e-01 
1.025562e+00 
1.054820e+00 
1.084203e+00 
1.113703e+00 
7.485141e-01 
7.211981e-01 
6.941585e-01 
6.674143e-01 
6.409923e-01 
6.149227e-01 
5.892393e-01 
5.639796e-01 
5.391858e-01 
5.149050e-01 
4.911902e-01 
4.681006e-01 
4.457029e-01 
4.240720e-01 
4.032923e-01 