# vtk DataFile Version 2.0 
Quadtree Mesh 
ASCII 
DATASET UNSTRUCTURED_GRID 
POINTS 4096 double 
-1.000000e+00 -1.000000e+00 0.000000e+00
-9.682540e-01 -1.000000e+00 0.000000e+00
-9.365079e-01 -1.000000e+00 0.000000e+00
-9.047619e-01 -1.000000e+00 0.000000e+00
-8.730159e-01 -1.000000e+00 0.000000e+00
-8.412698e-01 -1.000000e+00 0.000000e+00
-8.095238e-01 -1.000000e+00 0.000000e+00
-7.777778e-01 -1.000000e+00 0.000000e+00
-7.460317e-01 -1.000000e+00 0.000000e+00
-7.142857e-01 -1.000000e+00 0.000000e+00
-6.825397e-01 -1.000000e+00 0.000000e+00
-6.507937e-01 -1.000000e+00 0.000000e+00
-6.190476e-01 -1.000000e+00 0.000000e+00
-5.873016e-01 -1.000000e+00 0.000000e+00
-5.555556e-01 -1.000000e+00 0.000000e+00
-5.238095e-01 -1.000000e+00 0.000000e+00
-4.920635e-01 -1.000000e+00 0.000000e+00
-4.603175e-01 -1.000000e+00 0.000000e+00
-4.285714e-01 -1.000000e+00 0.000000e+00
-3.968254e-01 -1.000000e+00 0.000000e+00
-3.650794e-01 -1.000000e+00 0.000000e+00
-3.333333e-01 -1.000000e+00 0.000000e+00
-3.015873e-01 -1.000000e+00 0.000000e+00
-2.698413e-01 -1.000000e+00 0.000000e+00
-2.380952e-01 -1.000000e+00 0.000000e+00
-2.063492e-01 -1.000000e+00 0.000000e+00
-1.746032e-01 -1.000000e+00 0.000000e+00
-1.428571e-01 -1.000000e+00 0.000000e+00
-1.111111e-01 -1.000000e+00 0.000000e+00
-7.936508e-02 -1.000000e+00 0.000000e+00
-4.761905e-02 -1.000000e+00 0.000000e+00
-1.587302e-02 -1.000000e+00 0.000000e+00
1.587302e-02 -1.000000e+00 0.000000e+00
4.761905e-02 -1.000000e+00 0.000000e+00
7.936508e-02 -1.000000e+00 0.000000e+00
1.111111e-01 -1.000000e+00 0.000000e+00
1.428571e-01 -1.000000e+00 0.000000e+00
1.746032e-01 -1.000000e+00 0.000000e+00
2.063492e-01 -1.000000e+00 0.000000e+00
2.380952e-01 -1.000000e+00 0.000000e+00
2.698413e-01 -1.000000e+00 0.000000e+00
3.015873e-01 -1.000000e+00 0.000000e+00
3.333333e-01 -1.000000e+00 0.000000e+00
3.650794e-01 -1.000000e+00 0.000000e+00
3.968254e-01 -1.000000e+00 0.000000e+00
4.285714e-01 -1.000000e+00 0.000000e+00
4.603175e-01 -1.000000e+00 0.000000e+00
4.920635e-01 -1.000000e+00 0.000000e+00
5.238095e-01 -1.000000e+00 0.000000e+00
5.555556e-01 -1.000000e+00 0.000000e+00
5.873016e-01 -1.000000e+00 0.000000e+00
6.190476e-01 -1.000000e+00 0.000000e+00
6.507937e-01 -1.000000e+00 0.000000e+00
6.825397e-01 -1.000000e+00 0.000000e+00
7.142857e-01 -1.000000e+00 0.000000e+00
7.460317e-01 -1.000000e+00 0.000000e+00
7.777778e-01 -1.000000e+00 0.000000e+00
8.095238e-01 -1.000000e+00 0.000000e+00
8.412698e-01 -1.000000e+00 0.000000e+00
8.730159e-01 -1.000000e+00 0.000000e+00
9.047619e-01 -1.000000e+00 0.000000e+00
9.365079e-01 -1.000000e+00 0.000000e+00
9.682540e-01 -1.000000e+00 0.000000e+00
1.000000e+00 -1.000000e+00 0.000000e+00
-1.000000e+00 -9.682540e-01 0.000000e+00
-9.682540e-01 -9.682540e-01 0.000000e+00
-9.365079e-01 -9.682540e-01 0.000000e+00
-9.047619e-01 -9.682540e-01 0.000000e+00
-8.730159e-01 -9.682540e-01 0.000000e+00
-8.412698e-01 -9.682540e-01 0.000000e+00
-8.095238e-01 -9.682540e-01 0.000000e+00
-7.777778e-01 -9.682540e-01 0.000000e+00
-7.460317e-01 -9.682540e-01 0.000000e+00
-7.142857e-01 -9.682540e-01 0.000000e+00
-6.825397e-01 -9.682540e-01 0.000000e+00
-6.507937e-01 -9.682540e-01 0.000000e+00
-6.190476e-01 -9.682540e-01 0.000000e+00
-5.873016e-01 -9.682540e-01 0.000000e+00
-5.555556e-01 -9.682540e-01 0.000000e+00
-5.238095e-01 -9.682540e-01 0.000000e+00
-4.920635e-01 -9.682540e-01 0.000000e+00
-4.603175e-01 -9.682540e-01 0.000000e+00
-4.285714e-01 -9.682540e-01 0.000000e+00
-3.968254e-01 -9.682540e-01 0.000000e+00
-3.650794e-01 -9.682540e-01 0.000000e+00
-3.333333e-01 -9.682540e-01 0.000000e+00
-3.015873e-01 -9.682540e-01 0.000000e+00
-2.698413e-01 -9.682540e-01 0.000000e+00
-2.380952e-01 -9.682540e-01 0.000000e+00
-2.063492e-01 -9.682540e-01 0.000000e+00
-1.746032e-01 -9.682540e-01 0.000000e+00
-1.428571e-01 -9.682540e-01 0.000000e+00
-1.111111e-01 -9.682540e-01 0.000000e+00
-7.936508e-02 -9.682540e-01 0.000000e+00
-4.761905e-02 -9.682540e-01 0.000000e+00
-1.587302e-02 -9.682540e-01 0.000000e+00
1.587302e-02 -9.682540e-01 0.000000e+00
4.761905e-02 -9.682540e-01 0.000000e+00
7.936508e-02 -9.682540e-01 0.000000e+00
1.111111e-01 -9.682540e-01 0.000000e+00
1.428571e-01 -9.682540e-01 0.000000e+00
1.746032e-01 -9.682540e-01 0.000000e+00
2.063492e-01 -9.682540e-01 0.000000e+00
2.380952e-01 -9.682540e-01 0.000000e+00
2.698413e-01 -9.682540e-01 0.000000e+00
3.015873e-01 -9.682540e-01 0.000000e+00
3.333333e-01 -9.682540e-01 0.000000e+00
3.650794e-01 -9.682540e-01 0.000000e+00
3.968254e-01 -9.682540e-01 0.000000e+00
4.285714e-01 -9.682540e-01 0.000000e+00
4.603175e-01 -9.682540e-01 0.000000e+00
4.920635e-01 -9.682540e-01 0.000000e+00
5.238095e-01 -9.682540e-01 0.000000e+00
5.555556e-01 -9.682540e-01 0.000000e+00
5.873016e-01 -9.682540e-01 0.000000e+00
6.190476e-01 -9.682540e-01 0.000000e+00
6.507937e-01 -9.682540e-01 0.000000e+00
6.825397e-01 -9.682540e-01 0.000000e+00
7.142857e-01 -9.682540e-01 0.000000e+00
7.460317e-01 -9.682540e-01 0.000000e+00
7.777778e-01 -9.682540e-01 0.000000e+00
8.095238e-01 -9.682540e-01 0.000000e+00
8.412698e-01 -9.682540e-01 0.000000e+00
8.730159e-01 -9.682540e-01 0.000000e+00
9.047619e-01 -9.682540e-01 0.000000e+00
9.365079e-01 -9.682540e-01 0.000000e+00
9.682540e-01 -9.682540e-01 0.000000e+00
1.000000e+00 -9.682540e-01 0.000000e+00
-1.000000e+00 -9.365079e-01 0.000000e+00
-9.682540e-01 -9.365079e-01 0.000000e+00
-9.365079e-01 -9.365079e-01 0.000000e+00
-9.047619e-01 -9.365079e-01 0.000000e+00
-8.730159e-01 -9.365079e-01 0.000000e+00
-8.412698e-01 -9.365079e-01 0.000000e+00
-8.095238e-01 -9.365079e-01 0.000000e+00
-7.777778e-01 -9.365079e-01 0.000000e+00
-7.460317e-01 -9.365079e-01 0.000000e+00
-7.142857e-01 -9.365079e-01 0.000000e+00
-6.825397e-01 -9.365079e-01 0.000000e+00
-6.507937e-01 -9.365079e-01 0.000000e+00
-6.190476e-01 -9.365079e-01 0.000000e+00
-5.873016e-01 -9.365079e-01 0.000000e+00
-5.555556e-01 -9.365079e-01 0.000000e+00
-5.238095e-01 -9.365079e-01 0.000000e+00
-4.920635e-01 -9.365079e-01 0.000000e+00
-4.603175e-01 -9.365079e-01 0.000000e+00
-4.285714e-01 -9.365079e-01 0.000000e+00
-3.968254e-01 -9.365079e-01 0.000000e+00
-3.650794e-01 -9.365079e-01 0.000000e+00
-3.333333e-01 -9.365079e-01 0.000000e+00
-3.015873e-01 -9.365079e-01 0.000000e+00
-2.698413e-01 -9.365079e-01 0.000000e+00
-2.380952e-01 -9.365079e-01 0.000000e+00
-2.063492e-01 -9.365079e-01 0.000000e+00
-1.746032e-01 -9.365079e-01 0.000000e+00
-1.428571e-01 -9.365079e-01 0.000000e+00
-1.111111e-01 -9.365079e-01 0.000000e+00
-7.936508e-02 -9.365079e-01 0.000000e+00
-4.761905e-02 -9.365079e-01 0.000000e+00
-1.587302e-02 -9.365079e-01 0.000000e+00
1.587302e-02 -9.365079e-01 0.000000e+00
4.761905e-02 -9.365079e-01 0.000000e+00
7.936508e-02 -9.365079e-01 0.000000e+00
1.111111e-01 -9.365079e-01 0.000000e+00
1.428571e-01 -9.365079e-01 0.000000e+00
1.746032e-01 -9.365079e-01 0.000000e+00
2.063492e-01 -9.365079e-01 0.000000e+00
2.380952e-01 -9.365079e-01 0.000000e+00
2.698413e-01 -9.365079e-01 0.000000e+00
3.015873e-01 -9.365079e-01 0.000000e+00
3.333333e-01 -9.365079e-01 0.000000e+00
3.650794e-01 -9.365079e-01 0.000000e+00
3.968254e-01 -9.365079e-01 0.000000e+00
4.285714e-01 -9.365079e-01 0.000000e+00
4.603175e-01 -9.365079e-01 0.000000e+00
4.920635e-01 -9.365079e-01 0.000000e+00
5.238095e-01 -9.365079e-01 0.000000e+00
5.555556e-01 -9.365079e-01 0.000000e+00
5.873016e-01 -9.365079e-01 0.000000e+00
6.190476e-01 -9.365079e-01 0.000000e+00
6.507937e-01 -9.365079e-01 0.000000e+00
6.825397e-01 -9.365079e-01 0.000000e+00
7.142857e-01 -9.365079e-01 0.000000e+00
7.460317e-01 -9.365079e-01 0.000000e+00
7.777778e-01 -9.365079e-01 0.000000e+00
8.095238e-01 -9.365079e-01 0.000000e+00
8.412698e-01 -9.365079e-01 0.000000e+00
8.730159e-01 -9.365079e-01 0.000000e+00
9.047619e-01 -9.365079e-01 0.000000e+00
9.365079e-01 -9.365079e-01 0.000000e+00
9.682540e-01 -9.365079e-01 0.000000e+00
1.000000e+00 -9.365079e-01 0.000000e+00
-1.000000e+00 -9.047619e-01 0.000000e+00
-9.682540e-01 -9.047619e-01 0.000000e+00
-9.365079e-01 -9.047619e-01 0.000000e+00
-9.047619e-01 -9.047619e-01 0.000000e+00
-8.730159e-01 -9.047619e-01 0.000000e+00
-8.412698e-01 -9.047619e-01 0.000000e+00
-8.095238e-01 -9.047619e-01 0.000000e+00
-7.777778e-01 -9.047619e-01 0.000000e+00
-7.460317e-01 -9.047619e-01 0.000000e+00
-7.142857e-01 -9.047619e-01 0.000000e+00
-6.825397e-01 -9.047619e-01 0.000000e+00
-6.507937e-01 -9.047619e-01 0.000000e+00
-6.190476e-01 -9.047619e-01 0.000000e+00
-5.873016e-01 -9.047619e-01 0.000000e+00
-5.555556e-01 -9.047619e-01 0.000000e+00
-5.238095e-01 -9.047619e-01 0.000000e+00
-4.920635e-01 -9.047619e-01 0.000000e+00
-4.603175e-01 -9.047619e-01 0.000000e+00
-4.285714e-01 -9.047619e-01 0.000000e+00
-3.968254e-01 -9.047619e-01 0.000000e+00
-3.650794e-01 -9.047619e-01 0.000000e+00
-3.333333e-01 -9.047619e-01 0.000000e+00
-3.015873e-01 -9.047619e-01 0.000000e+00
-2.698413e-01 -9.047619e-01 0.000000e+00
-2.380952e-01 -9.047619e-01 0.000000e+00
-2.063492e-01 -9.047619e-01 0.000000e+00
-1.746032e-01 -9.047619e-01 0.000000e+00
-1.428571e-01 -9.047619e-01 0.000000e+00
-1.111111e-01 -9.047619e-01 0.000000e+00
-7.936508e-02 -9.047619e-01 0.000000e+00
-4.761905e-02 -9.047619e-01 0.000000e+00
-1.587302e-02 -9.047619e-01 0.000000e+00
1.587302e-02 -9.047619e-01 0.000000e+00
4.761905e-02 -9.047619e-01 0.000000e+00
7.936508e-02 -9.047619e-01 0.000000e+00
1.111111e-01 -9.047619e-01 0.000000e+00
1.428571e-01 -9.047619e-01 0.000000e+00
1.746032e-01 -9.047619e-01 0.000000e+00
2.063492e-01 -9.047619e-01 0.000000e+00
2.380952e-01 -9.047619e-01 0.000000e+00
2.698413e-01 -9.047619e-01 0.000000e+00
3.015873e-01 -9.047619e-01 0.000000e+00
3.333333e-01 -9.047619e-01 0.000000e+00
3.650794e-01 -9.047619e-01 0.000000e+00
3.968254e-01 -9.047619e-01 0.000000e+00
4.285714e-01 -9.047619e-01 0.000000e+00
4.603175e-01 -9.047619e-01 0.000000e+00
4.920635e-01 -9.047619e-01 0.000000e+00
5.238095e-01 -9.047619e-01 0.000000e+00
5.555556e-01 -9.047619e-01 0.000000e+00
5.873016e-01 -9.047619e-01 0.000000e+00
6.190476e-01 -9.047619e-01 0.000000e+00
[...]
POINT_DATA 4096 
SCALARS concentration double 1 
LOOKUP_TABLE default 
1.419197e+00 
1.399436e+00 
1.380058e+00 
1.361065e+00 
1.342468e+00 
1.324282e+00 
1.306521e+00 
1.289201e+00 
1.272339e+00 
1.255954e+00 
1.240063e+00 
1.224683e+00 
1.209833e+00 
1.195531e+00 
1.181795e+00 
1.168644e+00 
1.156097e+00 
1.144172e+00 
1.132889e+00 
1.122267e+00 
1.112325e+00 
1.103081e+00 
1.094553e+00 
1.086761e+00 
1.079720e+00 
1.073447e+00 
1.067960e+00 
1.063273e+00 
1.059402e+00 
1.056365e+00 
1.054179e+00 
1.052862e+00 
1.052491e+00 
1.053405e+00 
1.055583e+00 
1.058861e+00 
1.063125e+00 
1.068305e+00 
1.074354e+00 
1.081238e+00 
1.088926e+00 
1.097397e+00 
1.106626e+00 
1.116590e+00 
1.127269e+00 
1.138639e+00 
1.150680e+00 
1.163372e+00 
1.176694e+00 
1.190626e+00 
1.205148e+00 
1.220240e+00 
1.235883e+00 
1.252059e+00 
1.268749e+00 
1.285935e+00 
1.303599e+00 
1.321724e+00 
1.340295e+00 
1.359292e+00 
1.378701e+00 
1.398506e+00 
1.418690e+00 
1.439241e+00 
1.394373e+00 
1.374314e+00 
1.354636e+00 
1.335343e+00 
1.316445e+00 
1.297958e+00 
1.279896e+00 
1.262276e+00 
1.245115e+00 
1.228431e+00 
1.212244e+00 
1.196572e+00 
1.181433e+00 
1.166847e+00 
1.152832e+00 
1.139409e+00 
1.126596e+00 
1.114415e+00 
1.102885e+00 
1.092027e+00 
1.081860e+00 
1.072404e+00 
1.063678e+00 
1.055702e+00 
1.048495e+00 
1.042073e+00 
1.036455e+00 
1.031657e+00 
1.027694e+00 
1.024586e+00 
1.022352e+00 
1.021013e+00 
1.020663e+00 
1.021663e+00 
1.023953e+00 
1.027353e+00 
1.031752e+00 
1.037080e+00 
1.043292e+00 
1.050353e+00 
1.058235e+00 
1.066913e+00 
1.076362e+00 
1.086560e+00 
1.097483e+00 
1.109108e+00 
1.121414e+00 
1.134379e+00 
1.147981e+00 
1.162200e+00 
1.177014e+00 
1.192403e+00 
1.208346e+00 
1.224826e+00 
1.241821e+00 
1.259313e+00 
1.277285e+00 
1.295719e+00 
1.314597e+00 
1.333901e+00 
1.353615e+00 
1.373723e+00 
1.394209e+00 
1.415059e+00 
1.369789e+00 
1.349426e+00 
1.329443e+00 
1.309842e+00 
1.290636e+00 
1.271841e+00 
1.253471e+00 
1.235542e+00 
1.218073e+00 
1.201083e+00 
1.184591e+00 
1.168617e+00 
1.153180e+00 
1.138299e+00 
1.123996e+00 
1.110290e+00 
1.097203e+00 
1.084755e+00 
1.072968e+00 
1.061863e+00 
1.051462e+00 
1.041784e+00 
1.032851e+00 
1.024684e+00 
1.017302e+00 
1.010724e+00 
1.004968e+00 
1.000053e+00 
9.959946e-01 
9.928125e-01 
9.905286e-01 
9.891652e-01 
9.888406e-01 
9.899323e-01 
9.923369e-01 
9.958625e-01 
1.000400e+00 
1.005881e+00 
1.012262e+00 
1.019509e+00 
1.027591e+00 
1.036484e+00 
1.046163e+00 
1.056603e+00 
1.067779e+00 
1.079669e+00 
1.092249e+00 
1.105497e+00 
1.119389e+00 
1.133903e+00 
1.149018e+00 
1.164712e+00 
1.180964e+00 
1.197754e+00 
1.215062e+00 
1.232868e+00 
1.251153e+00 
1.269900e+00 
1.289091e+00 
1.308706e+00 
1.328729e+00 
1.349144e+00 
1.369935e+00 
1.391088e+00 
1.345457e+00 
1.324783e+00 
1.304488e+00 
1.284574e+00 
1.265054e+00 
1.245942e+00 
1.227255e+00 
1.209010e+00 
1.191225e+00 
1.173920e+00 
1.157114e+00 
1.140828e+00 
1.125082e+00 
1.109898e+00 
1.095295e+00 
1.081297e+00 
1.067924e+00 
1.055198e+00 
1.043144e+00 
1.031782e+00 
1.021135e+00 
1.011226e+00 
1.002077e+00 
9.937086e-01 
9.861431e-01 
9.794006e-01 
9.735006e-01 
9.684620e-01 
9.643033e-01 
9.610435e-01 
9.587067e-01 
9.573179e-01 
9.570232e-01 
9.582135e-01 
9.607348e-01 
9.643891e-01 
9.690694e-01 
9.747103e-01 
9.812676e-01 
9.887065e-01 
9.969982e-01 
1.006116e+00 
1.016034e+00 
1.026726e+00 
1.038168e+00 
1.050333e+00 
1.063198e+00 
1.076738e+00 
1.090931e+00 
1.105751e+00 
1.121177e+00 
1.137186e+00 
1.153757e+00 
1.170866e+00 
1.188495e+00 
1.206623e+00 
1.225231e+00 
1.244299e+00 
1.263808e+00 
1.283741e+00 
1.304079e+00 
1.324806e+00 
1.345908e+00 
1.367368e+00 
1.321389e+00 
1.300399e+00 
1.279786e+00 
1.259552e+00 
1.239709e+00 
1.220274e+00 
1.201263e+00 
1.182693e+00 
1.164583e+00 
1.146953e+00 
1.129823e+00 
1.113216e+00 
1.097151e+00 
1.081652e+00 
1.066739e+00 
1.052436e+00 
1.038766e+00 
1.025752e+00 
1.013418e+00 
1.001788e+00 
9.908853e-01 
9.807339e-01 
9.713573e-01 
9.627788e-01 
9.550209e-01 
9.481056e-01 
9.420538e-01 
9.368857e-01 
9.326208e-01 
9.292793e-01 
9.268866e-01 
9.254707e-01 
9.252113e-01 
9.265063e-01 
9.291470e-01 
9.329339e-01 
9.377625e-01 
9.435691e-01 
9.503100e-01 
9.579503e-01 
9.664608e-01 
9.758138e-01 
9.859815e-01 
9.969371e-01 
1.008654e+00 
1.021106e+00 
1.034267e+00 
1.048113e+00 
1.062617e+00 
1.077755e+00 
1.093503e+00 
1.109837e+00 
1.126736e+00 
1.144175e+00 
1.162135e+00 
1.180593e+00 
1.199531e+00 
1.218927e+00 
1.238764e+00 
1.259020e+00 
1.279680e+00 
1.300726e+00 
1.322143e+00 
1.343917e+00 
1.297600e+00 
1.276288e+00 
1.255351e+00 
1.234789e+00 
1.214617e+00 
1.194850e+00 
1.175506e+00 
1.156603e+00 
1.138159e+00 
1.120194e+00 
1.102731e+00 
1.085791e+00 
1.069397e+00 
1.053572e+00 
1.038338e+00 
1.023719e+00 
1.009740e+00 
9.964253e-01 
9.838000e-01 
9.718893e-01 
9.607186e-01 
9.503132e-01 
9.406984e-01 
9.318988e-01 
9.239386e-01 
9.168413e-01 
9.106296e-01 
9.053249e-01 
9.009482e-01 
8.975207e-01 
8.950687e-01 
8.936237e-01 
8.934055e-01 
8.948101e-01 
8.975733e-01 
9.014970e-01 
9.064795e-01 
9.124589e-01 
9.193916e-01 
9.272425e-01 
9.359820e-01 
9.455808e-01 
9.560098e-01 
9.672407e-01 
9.792454e-01 
9.919964e-01 
1.005466e+00 
1.019628e+00 
1.034456e+00 
1.049923e+00 
1.066004e+00 
1.082676e+00 
1.099913e+00 
1.117692e+00 
1.135992e+00 
1.154790e+00 
1.174066e+00 
1.193799e+00 
1.213969e+00 
1.234557e+00 
1.255545e+00 
1.276916e+00 
1.298655e+00 
1.320746e+00 
1.274105e+00 
1.252467e+00 
1.231200e+00 
1.210304e+00 
1.189794e+00 
1.169688e+00 
1.150003e+00 
1.130756e+00 
1.111969e+00 
1.093660e+00 
1.075853e+00 
1.058570e+00 
1.041835e+00 
1.025671e+00 
1.010104e+00 
9.951565e-01 
9.808557e-01 
9.672273e-01 
9.542976e-01 
9.420936e-01 
9.306423e-01 
9.199705e-01 
9.101053e-01 
9.010730e-01 
8.928998e-01 
8.856108e-01 
8.792302e-01 
8.737813e-01 
8.692864e-01 
8.657680e-01 
8.632532e-01 
8.617769e-01 
8.616065e-01 
8.631250e-01 
8.660139e-01 
8.700790e-01 
8.752216e-01 
8.813814e-01 
8.885148e-01 
8.965867e-01 
9.055662e-01 
9.154226e-01 
9.261251e-01 
9.376440e-01 
9.499495e-01 
9.630125e-01 
9.768039e-01 
9.912953e-01 
1.006459e+00 
1.022267e+00 
1.038694e+00 
1.055713e+00 
1.073299e+00 
1.091429e+00 
1.110079e+00 
1.129227e+00 
1.148850e+00 
1.168928e+00 
1.189440e+00 
1.210366e+00 
1.231689e+00 
1.253392e+00 
1.275458e+00 
1.297871e+00 
1.250941e+00 
1.228972e+00 
1.207366e+00 
1.186127e+00 
1.165272e+00 
1.144816e+00 
1.124780e+00 
1.105180e+00 
1.086038e+00 
1.067373e+00 
1.049210e+00 
1.031572e+00 
1.014483e+00 
9.979679e-01 
9.820527e-01 
9.667633e-01 
9.521265e-01 
9.381700e-01 
9.249216e-01 
9.124099e-01 
9.006637e-01 
8.897116e-01 
8.795826e-01 
8.703050e-01 
8.619068e-01 
8.544151e-01 
8.478559e-01 
8.422543e-01 
8.376343e-01 
8.340196e-01 
8.314381e-01 
8.299281e-01 
8.298144e-01 
8.314520e-01 
8.344708e-01 
8.386826e-01 
8.439924e-01 
8.503410e-01 
8.576851e-01 
8.659892e-01 
8.752208e-01 
8.853475e-01 
8.963370e-01 
9.081575e-01 
9.207776e-01 
9.341662e-01 
9.482927e-01 
9.631271e-01 
9.786398e-01 
9.948023e-01 
1.011586e+00 
1.028965e+00 
1.046913e+00 
1.065404e+00 
1.084414e+00 
1.103921e+00 
1.123901e+00 
1.144332e+00 
1.165193e+00 
1.186466e+00 
1.208131e+00 
1.230171e+00 
1.252570e+00 
1.275312e+00 
1.228120e+00 
1.205809e+00 
1.183856e+00 
1.162267e+00 
1.141057e+00 
1.120244e+00 
1.099846e+00 
1.079884e+00 
1.060376e+00 
1.041346e+00 
1.022815e+00 
1.004810e+00 
9.873551e-01 
9.704766e-01 
9.542012e-01 
9.385562e-01 
9.235700e-01 
9.092716e-01 
8.956907e-01 
8.828575e-01 
8.708025e-01 
8.595567e-01 
8.491507e-01 
8.396151e-01 
8.309799e-01 
8.232744e-01 
8.165267e-01 
8.107638e-01 
8.060113e-01 
8.022948e-01 
7.996430e-01 
7.980969e-01 
7.980357e-01 
7.997820e-01 
8.029293e-01 
8.072910e-01 
8.127741e-01 
8.193203e-01 
8.268858e-01 
8.354344e-01 
8.449318e-01 
8.553434e-01 
8.666350e-01 
8.787729e-01 
8.917234e-01 
9.054537e-01 
9.199313e-01 
9.351243e-01 
9.510017e-01 
9.675333e-01 
9.846897e-01 
1.002443e+00 
1.020765e+00 
1.039631e+00 
1.059014e+00 
1.078892e+00 
1.099239e+00 
1.120035e+00 
1.141256e+00 
1.162885e+00 
1.184901e+00 
1.207288e+00 
1.230029e+00 
1.253107e+00 
1.205600e+00 
1.182941e+00 
1.160638e+00 
1.138694e+00 
1.117124e+00 
1.095947e+00 
1.075181e+00 
1.054848e+00 
1.034967e+00 
1.015561e+00 
9.966537e-01 
9.782705e-01 
9.604382e-01 
9.431837e-01 
9.265349e-01 
9.105207e-01 
8.951708e-01 
8.805158e-01 
8.665873e-01 
8.534173e-01 
8.410385e-01 
8.294836e-01 
8.187859e-01 
8.089781e-01 
8.000926e-01 
7.921610e-01 
7.852136e-01 
7.792797e-01 
7.743868e-01 
7.705621e-01 
7.678356e-01 
7.662507e-01 
7.662599e-01 
7.681292e-01 
7.714145e-01 
7.759347e-01 
7.816008e-01 
7.883555e-01 
7.961549e-01 
8.049614e-01 
8.147388e-01 
8.254502e-01 
8.370592e-01 
8.495297e-01 
8.628261e-01 
8.769134e-01 
8.917569e-01 
9.073232e-01 
9.235793e-01 
9.404935e-01 
9.580352e-01 
9.761748e-01 
9.948839e-01 
1.014135e+00 
1.033903e+00 
1.054161e+00 
1.074886e+00 
1.096055e+00 
1.117645e+00 
1.139637e+00 
1.162013e+00 
1.184754e+00 
1.207843e+00 
1.231263e+00 
1.183431e+00 
1.160422e+00 
1.137763e+00 
1.115456e+00 
1.093519e+00 
1.071970e+00 
1.050828e+00 
1.030114e+00 
1.009850e+00 
9.900577e-01 
9.707619e-01 
9.519887e-01 
9.337658e-01 
9.161216e-01 
8.990851e-01 
8.826867e-01 
8.669577e-01 
8.519304e-01 
8.376382e-01 
8.241151e-01 
8.113959e-01 
7.995160e-01 
7.885107e-01 
7.784154e-01 
7.692651e-01 
7.610939e-01 
7.539348e-01 
7.478193e-01 
7.427773e-01 
7.388378e-01 
7.360320e-01 
7.344056e-01 
7.344925e-01 
7.364886e-01 
7.399158e-01 
7.446014e-01 
7.504597e-01 
7.574342e-01 
7.654803e-01 
7.745592e-01 
7.846318e-01 
7.956588e-01 
8.076014e-01 
8.204210e-01 
8.340794e-01 
8.485393e-01 
8.637642e-01 
8.797183e-01 
8.963671e-01 
9.136772e-01 
9.316165e-01 
9.501542e-01 
9.692605e-01 
9.889074e-01 
1.009068e+00 
1.029715e+00 
1.050824e+00 
1.072372e+00 
1.094337e+00 
1.116699e+00 
1.139437e+00 
1.162535e+00 
1.185975e+00 
1.209740e+00 
1.161633e+00 
1.138268e+00 
1.115246e+00 
1.092571e+00 
1.070259e+00 
1.048330e+00 
1.026803e+00 
1.005699e+00 
9.850410e-01 
9.648516e-01 
9.451557e-01 
9.259801e-01 
9.073535e-01 
8.893055e-01 
8.718667e-01 
8.550686e-01 
8.389444e-01 
8.235282e-01 
8.088551e-01 
7.949616e-01 
7.818848e-01 
7.696625e-01 
7.583326e-01 
7.479335e-01 
7.385027e-01 
7.300774e-01 
7.226934e-01 
7.163849e-01 
7.111843e-01 
7.071228e-01 
7.042329e-01 
7.025624e-01 
7.027349e-01 
7.048599e-01 
7.084336e-01 
7.132922e-01 
7.193530e-01 
7.265599e-01 
7.348673e-01 
7.442343e-01 
7.546191e-01 
7.659794e-01 
7.782736e-01 
7.914602e-01 
8.054985e-01 
8.203487e-01 
8.359718e-01 
8.523300e-01 
8.693871e-01 
8.871080e-01 
9.054589e-01 
9.244076e-01 
9.439235e-01 
9.639772e-01 
9.845406e-01 
1.005586e+00 
1.027089e+00 
1.049024e+00 
1.071371e+00 
1.094108e+00 
1.117216e+00 
1.140677e+00 
1.164472e+00 
1.188585e+00 
1.140218e+00 
1.116492e+00 
1.093102e+00 
1.070052e+00 
1.047359e+00 
1.025042e+00 
1.003121e+00 
9.816188e-01 
9.605567e-01 
9.399592e-01 
9.198517e-01 
9.002613e-01 
8.812177e-01 
8.627517e-01 
8.448953e-01 
8.276817e-01 
8.111456e-01 
7.953230e-01 
7.802513e-01 
7.659692e-01 
7.525162e-01 
7.399329e-01 
7.282603e-01 
7.175394e-01 
7.078113e-01 
6.991161e-01 
6.914929e-01 
6.849788e-01 
6.796093e-01 
6.754178e-01 
6.724386e-01 
6.707214e-01 
6.709878e-01 
6.732434e-01 
6.769687e-01 
6.820088e-01 
6.882835e-01 
6.957367e-01 
7.043216e-01 
7.139942e-01 
7.247096e-01 
7.364223e-01 
7.490874e-01 
7.626605e-01 
7.770977e-01 
7.923567e-01 
8.083959e-01 
8.251756e-01 
8.426572e-01 
8.608041e-01 
8.795810e-01 
8.989544e-01 
9.188924e-01 
9.393645e-01 
9.603414e-01 
9.817952e-01 
1.003700e+00 
1.026031e+00 
1.048768e+00 
1.071887e+00 
1.095370e+00 
1.119198e+00 
1.143354e+00 
1.167819e+00 
1.119200e+00 
1.095108e+00 
1.071346e+00 
1.047916e+00 
1.024835e+00 
1.002124e+00 
9.798018e-01 
9.578913e-01 
9.364157e-01 
9.153995e-01 
8.948688e-01 
8.748514e-01 
8.553773e-01 
8.364788e-01 
8.181893e-01 
8.005437e-01 
7.835783e-01 
7.673312e-01 
7.518421e-01 
7.371519e-01 
7.233030e-01 
7.103389e-01 
6.983037e-01 
6.872419e-01 
6.771979e-01 
6.682155e-01 
6.603372e-01 
6.536038e-01 
6.480539e-01 
6.437238e-01 
6.406499e-01 
6.388833e-01 
6.392518e-01 
6.416392e-01 
6.455218e-01 
6.507530e-01 
6.572545e-01 
6.649698e-01 
6.738497e-01 
6.838471e-01 
6.949131e-01 
7.069989e-01 
7.200559e-01 
7.340361e-01 
7.488926e-01 
7.645799e-01 
7.810542e-01 
7.982731e-01 
8.161962e-01 
8.347849e-01 
8.540026e-01 
8.738142e-01 
8.941867e-01 
9.150885e-01 
9.364894e-01 
9.583608e-01 
9.806764e-01 
1.003412e+00 
1.026545e+00 
1.050053e+00 
1.073917e+00 
1.098117e+00 
1.122637e+00 
1.147458e+00 
1.098599e+00 
1.074141e+00 
1.050002e+00 
1.026187e+00 
1.002714e+00 
9.796006e-01 
9.568697e-01 
9.345430e-01 
9.126443e-01 
8.911988e-01 
8.702331e-01 
8.497758e-01 
8.298575e-01 
8.105114e-01 
7.917726e-01 
7.736776e-01 
7.562646e-01 
7.395736e-01 
7.236468e-01 
7.085276e-01 
6.942615e-01 
6.808949e-01 
6.684756e-01 
6.570517e-01 
6.466714e-01 
6.373826e-01 
6.292318e-01 
6.222638e-01 
6.165207e-01 
6.120424e-01 
6.088676e-01 
6.070487e-01 
6.075269e-01 
6.100466e-01 
6.140933e-01 
6.195266e-01 
6.262695e-01 
6.342642e-01 
6.434588e-01 
6.538020e-01 
6.652408e-01 
6.777221e-01 
6.911935e-01 
7.056030e-01 
7.209004e-01 
7.370371e-01 
7.539662e-01 
7.716431e-01 
7.900252e-01 
8.090721e-01 
8.287454e-01 
8.490089e-01 
8.698284e-01 
8.911712e-01 
9.130061e-01 
9.353042e-01 
9.580390e-01 
9.811858e-01 
1.004721e+00 
1.028624e+00 
1.052873e+00 
1.077450e+00 
1.102337e+00 
1.127517e+00 
1.078465e+00 
1.053639e+00 
1.029119e+00 
1.004913e+00 
9.810386e-01 
9.575168e-01 
9.343682e-01 
9.116156e-01 
8.892830e-01 
8.673962e-01 
8.459824e-01 
8.250710e-01 
8.046932e-01 
7.848831e-01 
7.656773e-01 
7.471140e-01 
7.292332e-01 
7.120773e-01 
6.956907e-01 
6.801197e-01 
6.654129e-01 
6.516202e-01 
6.387929e-01 
6.269835e-01 
6.162443e-01 
6.066278e-01 
5.981849e-01 
5.909650e-01 
5.850146e-01 
5.803773e-01 
5.770948e-01 
5.752206e-01 
5.758105e-01 
5.784632e-01 
5.826816e-01 
5.883294e-01 
5.953303e-01 
6.036241e-01 
6.131552e-01 
6.238676e-01 
6.357035e-01 
6.486052e-01 
6.625155e-01 
6.773787e-01 
6.931405e-01 
7.097490e-01 
7.271544e-01 
7.453094e-01 
7.641692e-01 
7.836915e-01 
8.038364e-01 
8.245663e-01 
8.458457e-01 
8.676410e-01 
8.899204e-01 
9.126546e-01 
9.358169e-01 
9.593819e-01 
9.833264e-01 
1.007628e+00 
1.032267e+00 
1.057224e+00 
1.082481e+00 
1.108022e+00 
1.058841e+00 
1.033637e+00 
1.008728e+00 
9.841227e-01 
9.598405e-01 
9.359008e-01 
9.123250e-01 
8.891358e-01 
8.663578e-01 
8.440171e-01 
8.221417e-01 
8.007613e-01 
7.799081e-01 
7.596171e-01 
7.399262e-01 
7.208751e-01 
7.025059e-01 
6.848631e-01 
6.679936e-01 
6.519469e-01 
6.367746e-01 
6.225304e-01 
6.092698e-01 
5.970495e-01 
5.859270e-01 
5.759593e-01 
5.672030e-01 
5.597124e-01 
5.535389e-01 
5.487305e-01 
5.453328e-01 
5.434005e-01 
5.440989e-01 
5.468873e-01 
5.512867e-01 
5.571638e-01 
5.644415e-01 
5.730564e-01 
5.829486e-01 
5.940562e-01 
6.063162e-01 
6.196654e-01 
6.340418e-01 
6.493851e-01 
6.656369e-01 
6.827417e-01 
7.006466e-01 
7.193016e-01 
7.386596e-01 
7.586763e-01 
7.793103e-01 
8.005226e-01 
8.222765e-01 
8.445374e-01 
8.672731e-01 
8.904543e-01 
9.140536e-01 
9.380456e-01 
9.624067e-01 
9.871147e-01 
1.012149e+00 
1.037491e+00 
1.063123e+00 
1.089028e+00 
1.039657e+00 
1.014071e+00 
9.887733e-01 
9.637694e-01 
9.390774e-01 
9.147172e-01 
8.907102e-01 
8.670794e-01 
8.438495e-01 
8.210470e-01 
7.987003e-01 
7.768401e-01 
7.554990e-01 
7.347129e-01 
7.145207e-01 
6.949639e-01 
6.760867e-01 
6.579358e-01 
6.405607e-01 
6.240139e-01 
6.083507e-01 
5.936287e-01 
5.799079e-01 
5.672499e-01 
5.557175e-01 
5.453735e-01 
5.362803e-01 
5.284980e-01 
5.220840e-01 
5.170915e-01 
5.135701e-01 
5.115761e-01 
5.123952e-01 
5.153291e-01 
5.199225e-01 
5.260461e-01 
5.336221e-01 
5.425829e-01 
5.528630e-01 
5.643941e-01 
5.771069e-01 
5.909324e-01 
6.058031e-01 
6.216538e-01 
6.384218e-01 
6.560476e-01 
6.744752e-01 
6.936517e-01 
7.135278e-01 
7.340572e-01 
7.551969e-01 
7.769065e-01 
7.991483e-01 
8.218868e-01 
8.450900e-01 
8.687280e-01 
8.927733e-01 
9.172003e-01 
9.419852e-01 
9.671060e-01 
9.925420e-01 
1.018274e+00 
1.044286e+00 
1.070559e+00 
1.020979e+00 
9.950144e-01 
9.693260e-01 
9.439202e-01 
9.188145e-01 
8.940290e-01 
8.695849e-01 
8.455054e-01 
8.218152e-01 
7.985411e-01 
7.757120e-01 
7.533590e-01 
7.315157e-01 
7.102186e-01 
6.895074e-01 
6.694255e-01 
6.500189e-01 
6.313366e-01 
6.134310e-01 
5.963577e-01 
5.801757e-01 
5.649468e-01 
5.507360e-01 
5.376103e-01 
5.256384e-01 
5.148897e-01 
5.054330e-01 
4.973356e-01 
4.906613e-01 
4.854695e-01 
4.818150e-01 
4.797558e-01 
4.806967e-01 
4.837834e-01 
4.885840e-01 
4.949733e-01 
5.028714e-01 
5.122055e-01 
5.229029e-01 
5.348883e-01 
5.480850e-01 
5.624174e-01 
5.778121e-01 
5.941983e-01 
6.115089e-01 
6.296804e-01 
6.486533e-01 
6.683719e-01 
6.887843e-01 
7.098426e-01 
7.315021e-01 
7.537212e-01 
7.764610e-01 
7.996859e-01 
8.233635e-01 
8.474639e-01 
8.719592e-01 
8.968238e-01 
9.220339e-01 
9.475676e-01 
9.734044e-01 
9.995255e-01 
1.025914e+00 
1.052553e+00 
1.002836e+00 
9.764921e-01 
9.504120e-01 
9.246020e-01 
8.990797e-01 
8.738648e-01 
8.489786e-01 
8.244439e-01 
8.002857e-01 
7.765309e-01 
7.532087e-01 
7.303507e-01 
7.079910e-01 
6.861669e-01 
6.649191e-01 
6.442923e-01 
6.243343e-01 
6.050967e-01 
5.866344e-01 
5.690065e-01 
5.522758e-01 
5.365088e-01 
5.217757e-01 
5.081494e-01 
4.957054e-01 
4.845201e-01 
4.746704e-01 
4.662312e-01 
4.592742e-01 
4.538661e-01 
4.500677e-01 
4.479396e-01 
4.490031e-01 
4.522509e-01 
4.572743e-01 
4.639513e-01 
4.721988e-01 
4.819371e-01 
4.930855e-01 
5.055596e-01 
5.192747e-01 
5.341480e-01 
5.500991e-01 
5.670518e-01 
5.849339e-01 
6.036778e-01 
6.232203e-01 
6.435031e-01 
6.644719e-01 
6.860768e-01 
7.082716e-01 
7.310135e-01 
7.542630e-01 
7.779843e-01 
8.021447e-01 
8.267141e-01 
8.516647e-01 
8.769708e-01 
9.026089e-01 
9.285571e-01 
9.547953e-01 
9.813050e-01 
1.008069e+00 
1.035072e+00 
9.852529e-01 
9.585311e-01 
9.320590e-01 
9.058438e-01 
8.799028e-01 
8.542555e-01 
8.289229e-01 
8.039277e-01 
7.792947e-01 
7.550508e-01 
7.312255e-01 
7.078506e-01 
6.849608e-01 
6.625941e-01 
6.407920e-01 
6.196002e-01 
5.990686e-01 
5.792507e-01 
5.602046e-01 
5.419925e-01 
5.246814e-01 
5.083426e-01 
4.930520e-01 
4.788891e-01 
4.659367e-01 
4.542796e-01 
4.440034e-01 
4.351923e-01 
4.279271e-01 
4.222832e-01 
4.183288e-01 
4.161280e-01 
4.173142e-01 
4.207330e-01 
4.259970e-01 
4.329869e-01 
4.416150e-01 
4.517928e-01 
4.634295e-01 
4.764306e-01 
4.907023e-01 
5.061532e-01 
5.226960e-01 
5.402480e-01 
5.587319e-01 
5.780759e-01 
5.982133e-01 
6.190828e-01 
6.406279e-01 
6.627970e-01 
6.855424e-01 
7.088201e-01 
7.325906e-01 
7.568177e-01 
7.814686e-01 
8.065132e-01 
8.319238e-01 
8.576748e-01 
8.837430e-01 
9.101068e-01 
9.367465e-01 
9.636440e-01 
9.907826e-01 
1.018147e+00 
9.682605e-01 
9.411621e-01 
9.142987e-01 
8.876781e-01 
8.613175e-01 
8.352358e-01 
8.094536e-01 
7.839934e-01 
7.588797e-01 
7.341394e-01 
7.098017e-01 
6.858988e-01 
6.624659e-01 
6.395413e-01 
6.171674e-01 
5.953907e-01 
5.742626e-01 
5.538391e-01 
5.341808e-01 
5.153534e-01 
4.974280e-01 
4.804812e-01 
4.645948e-01 
4.498556e-01 
4.363547e-01 
4.241862e-01 
4.134458e-01 
4.042284e-01 
3.966259e-01 
3.907238e-01 
3.865994e-01 
3.843215e-01 
3.856297e-01 
3.892306e-01 
3.947558e-01 
4.020878e-01 
4.111321e-01 
4.217895e-01 
4.339567e-01 
4.475277e-01 
4.623979e-01 
4.784667e-01 
4.956388e-01 
5.138251e-01 
5.329428e-01 
5.529156e-01 
5.736734e-01 
5.951522e-01 
6.172935e-01 
6.400438e-01 
6.633541e-01 
6.871802e-01 
7.114821e-01 
7.362235e-01 
7.613716e-01 
7.868963e-01 
8.127703e-01 
8.389684e-01 
8.654677e-01 
8.922471e-01 
9.192875e-01 
9.465710e-01 
9.740817e-01 
1.001805e+00 
9.518959e-01 
9.244234e-01 
8.971702e-01 
8.701450e-01 
8.433645e-01 
8.168472e-01 
7.906131e-01 
7.646844e-01 
7.390850e-01 
7.138414e-01 
6.889830e-01 
6.645418e-01 
6.405531e-01 
6.170558e-01 
5.940927e-01 