# vtk DataFile Version 2.0 
Quadtree Mesh 
ASCII 
DATASET UNSTRUCTURED_GRID 
POINTS 4096 double 
-1.000000e+00 -1.000000e+00 0.000000e+00
-9.682540e-01 -1.000000e+00 0.000000e+00
-9.365079e-01 -1.000000e+00 0.000000e+00
-9.047619e-01 -1.000000e+00 0.000000e+00
-8.730159e-01 -1.000000e+00 0.000000e+00
-8.412698e-01 -1.000000e+00 0.000000e+00
-8.095238e-01 -1.000000e+00 0.000000e+00
-7.777778e-01 -1.000000e+00 0.000000e+00
-7.460317e-01 -1.000000e+00 0.000000e+00
-7.142857e-01 -1.000000e+00 0.000000e+00
-6.825397e-01 -1.000000e+00 0.000000e+00
-6.507937e-01 -1.000000e+00 0.000000e+00
-6.190476e-01 -1.000000e+00 0.000000e+00
-5.873016e-01 -1.000000e+00 0.000000e+00
-5.555556e-01 -1.000000e+00 0.000000e+00
-5.238095e-01 -1.000000e+00 0.000000e+00
-4.920635e-01 -1.000000e+00 0.000000e+00
-4.603175e-01 -1.000000e+00 0.000000e+00
-4.285714e-01 -1.000000e+00 0.000000e+00
-3.968254e-01 -1.000000e+00 0.000000e+00
-3.650794e-01 -1.000000e+00 0.000000e+00
-3.333333e-01 -1.000000e+00 0.000000e+00
-3.015873e-01 -1.000000e+00 0.000000e+00
-2.698413e-01 -1.000000e+00 0.000000e+00
-2.380952e-01 -1.000000e+00 0.000000e+00
-2.063492e-01 -1.000000e+00 0.000000e+00
-1.746032e-01 -1.000000e+00 0.000000e+00
-1.428571e-01 -1.000000e+00 0.000000e+00
-1.111111e-01 -1.000000e+00 0.000000e+00
-7.936508e-02 -1.000000e+00 0.000000e+00
-4.761905e-02 -1.000000e+00 0.000000e+00
-1.587302e-02 -1.000000e+00 0.000000e+00
1.587302e-02 -1.000000e+00 0.000000e+00
4.761905e-02 -1.000000e+00 0.000000e+00
7.936508e-02 -1.000000e+00 0.000000e+00
1.111111e-01 -1.000000e+00 0.000000e+00
1.428571e-01 -1.000000e+00 0.000000e+00
1.746032e-01 -1.000000e+00 0.000000e+00
2.063492e-01 -1.000000e+00 0.000000e+00
2.380952e-01 -1.000000e+00 0.000000e+00
2.698413e-01 -1.000000e+00 0.000000e+00
3.015873e-01 -1.000000e+00 0.000000e+00
3.333333e-01 -1.000000e+00 0.000000e+00
3.650794e-01 -1.000000e+00 0.000000e+00
3.968254e-01 -1.000000e+00 0.000000e+00
4.285714e-01 -1.000000e+00 0.000000e+00
4.603175e-01 -1.000000e+00 0.000000e+00
4.920635e-01 -1.000000e+00 0.000000e+00
5.238095e-01 -1.000000e+00 0.000000e+00
5.555556e-01 -1.000000e+00 0.000000e+00
5.873016e-01 -1.000000e+00 0.000000e+00
6.190476e-01 -1.000000e+00 0.000000e+00
6.507937e-01 -1.000000e+00 0.000000e+00
6.825397e-01 -1.000000e+00 0.000000e+00
7.142857e-01 -1.000000e+00 0.000000e+00
7.460317e-01 -1.000000e+00 0.000000e+00
7.777778e-01 -1.000000e+00 0.000000e+00
8.095238e-01 -1.000000e+00 0.000000e+00
8.412698e-01 -1.000000e+00 0.000000e+00
8.730159e-01 -1.000000e+00 0.000000e+00
9.047619e-01 -1.000000e+00 0.000000e+00
9.365079e-01 -1.000000e+00 0.000000e+00
9.682540e-01 -1.000000e+00 0.000000e+00
1.000000e+00 -1.000000e+00 0.000000e+00
-1.000000e+00 -9.682540e-01 0.000000e+00
-9.682540e-01 -9.682540e-01 0.000000e+00
-9.365079e-01 -9.682540e-01 0.000000e+00
-9.047619e-01 -9.682540e-01 0.000000e+00
-8.730159e-01 -9.682540e-01 0.000000e+00
-8.412698e-01 -9.682540e-01 0.000000e+00
-8.095238e-01 -9.682540e-01 0.000000e+00
-7.777778e-01 -9.682540e-01 0.000000e+00
-7.460317e-01 -9.682540e-01 0.000000e+00
-7.142857e-01 -9.682540e-01 0.000000e+00
-6.825397e-01 -9.682540e-01 0.000000e+00
-6.507937e-01 -9.682540e-01 0.000000e+00
-6.190476e-01 -9.682540e-01 0.000000e+00
-5.873016e-01 -9.682540e-01 0.000000e+00
-5.555556e-01 -9.682540e-01 0.000000e+00
-5.238095e-01 -9.682540e-01 0.000000e+00
-4.920635e-01 -9.682540e-01 0.000000e+00
-4.603175e-01 -9.682540e-01 0.000000e+00
-4.285714e-01 -9.682540e-01 0.000000e+00
-3.968254e-01 -9.682540e-01 0.000000e+00
-3.650794e-01 -9.682540e-01 0.000000e+00
-3.333333e-01 -9.682540e-01 0.000000e+00
-3.015873e-01 -9.682540e-01 0.000000e+00
-2.698413e-01 -9.682540e-01 0.000000e+00
-2.380952e-01 -9.682540e-01 0.000000e+00
-2.063492e-01 -9.682540e-01 0.000000e+00
-1.746032e-01 -9.682540e-01 0.000000e+00
-1.428571e-01 -9.682540e-01 0.000000e+00
-1.111111e-01 -9.682540e-01 0.000000e+00
-7.936508e-02 -9.682540e-01 0.000000e+00
-4.761905e-02 -9.682540e-01 0.000000e+00
-1.587302e-02 -9.682540e-01 0.000000e+00
1.587302e-02 -9.682540e-01 0.000000e+00
4.761905e-02 -9.682540e-01 0.000000e+00
7.936508e-02 -9.682540e-01 0.000000e+00
1.111111e-01 -9.682540e-01 0.000000e+00
1.428571e-01 -9.682540e-01 0.000000e+00
1.746032e-01 -9.682540e-01 0.000000e+00
2.063492e-01 -9.682540e-01 0.000000e+00
2.380952e-01 -9.682540e-01 0.000000e+00
2.698413e-01 -9.682540e-01 0.000000e+00
3.015873e-01 -9.682540e-01 0.000000e+00
3.333333e-01 -9.682540e-01 0.000000e+00
3.650794e-01 -9.682540e-01 0.000000e+00
3.968254e-01 -9.682540e-01 0.000000e+00
4.285714e-01 -9.682540e-01 0.000000e+00
4.603175e-01 -9.682540e-01 0.000000e+00
4.920635e-01 -9.682540e-01 0.000000e+00
5.238095e-01 -9.682540e-01 0.000000e+00
5.555556e-01 -9.682540e-01 0.000000e+00
5.873016e-01 -9.682540e-01 0.000000e+00
6.190476e-01 -9.682540e-01 0.000000e+00
6.507937e-01 -9.682540e-01 0.000000e+00
6.825397e-01 -9.682540e-01 0.000000e+00
7.142857e-01 -9.682540e-01 0.000000e+00
7.460317e-01 -9.682540e-01 0.000000e+00
7.777778e-01 -9.682540e-01 0.000000e+00
8.095238e-01 -9.682540e-01 0.000000e+00
8.412698e-01 -9.682540e-01 0.000000e+00
8.730159e-01 -9.682540e-01 0.000000e+00
9.047619e-01 -9.682540e-01 0.000000e+00
9.365079e-01 -9.682540e-01 0.000000e+00
9.682540e-01 -9.682540e-01 0.000000e+00
1.000000e+00 -9.682540e-01 0.000000e+00
-1.000000e+00 -9.365079e-01 0.000000e+00
-9.682540e-01 -9.365079e-01 0.000000e+00
-9.365079e-01 -9.365079e-01 0.000000e+00
-9.047619e-01 -9.365079e-01 0.000000e+00
-8.730159e-01 -9.365079e-01 0.000000e+00
-8.412698e-01 -9.365079e-01 0.000000e+00
-8.095238e-01 -9.365079e-01 0.000000e+00
-7.777778e-01 -9.365079e-01 0.000000e+00
-7.460317e-01 -9.365079e-01 0.000000e+00
-7.142857e-01 -9.365079e-01 0.000000e+00
-6.825397e-01 -9.365079e-01 0.000000e+00
-6.507937e-01 -9.365079e-01 0.000000e+00
-6.190476e-01 -9.365079e-01 0.000000e+00
-5.873016e-01 -9.365079e-01 0.000000e+00
-5.555556e-01 -9.365079e-01 0.000000e+00
-5.238095e-01 -9.365079e-01 0.000000e+00
-4.920635e-01 -9.365079e-01 0.000000e+00
-4.603175e-01 -9.365079e-01 0.000000e+00
-4.285714e-01 -9.365079e-01 0.000000e+00
-3.968254e-01 -9.365079e-01 0.000000e+00
-3.650794e-01 -9.365079e-01 0.000000e+00
-3.333333e-01 -9.365079e-01 0.000000e+00
-3.015873e-01 -9.365079e-01 0.000000e+00
-2.698413e-01 -9.365079e-01 0.000000e+00
-2.380952e-01 -9.365079e-01 0.000000e+00
-2.063492e-01 -9.365079e-01 0.000000e+00
-1.746032e-01 -9.365079e-01 0.000000e+00
-1.428571e-01 -9.365079e-01 0.000000e+00
-1.111111e-01 -9.365079e-01 0.000000e+00
-7.936508e-02 -9.365079e-01 0.000000e+00
-4.761905e-02 -9.365079e-01 0.000000e+00
-1.587302e-02 -9.365079e-01 0.000000e+00
1.587302e-02 -9.365079e-01 0.000000e+00
4.761905e-02 -9.365079e-01 0.000000e+00
7.936508e-02 -9.365079e-01 0.000000e+00
1.111111e-01 -9.365079e-01 0.000000e+00
1.428571e-01 -9.365079e-01 0.000000e+00
1.746032e-01 -9.365079e-01 0.000000e+00
2.063492e-01 -9.365079e-01 0.000000e+00
2.380952e-01 -9.365079e-01 0.000000e+00
2.698413e-01 -9.365079e-01 0.000000e+00
3.015873e-01 -9.365079e-01 0.000000e+00
3.333333e-01 -9.365079e-01 0.000000e+00
3.650794e-01 -9.365079e-01 0.000000e+00
3.968254e-01 -9.365079e-01 0.000000e+00
4.285714e-01 -9.365079e-01 0.000000e+00
4.603175e-01 -9.365079e-01 0.000000e+00
4.920635e-01 -9.365079e-01 0.000000e+00
5.238095e-01 -9.365079e-01 0.000000e+00
5.555556e-01 -9.365079e-01 0.000000e+00
5.873016e-01 -9.365079e-01 0.000000e+00
6.190476e-01 -9.365079e-01 0.000000e+00
6.507937e-01 -9.365079e-01 0.000000e+00
6.825397e-01 -9.365079e-01 0.000000e+00
7.142857e-01 -9.365079e-01 0.000000e+00
7.460317e-01 -9.365079e-01 0.000000e+00
7.777778e-01 -9.365079e-01 0.000000e+00
8.095238e-01 -9.365079e-01 0.000000e+00
8.412698e-01 -9.365079e-01 0.000000e+00
8.730159e-01 -9.365079e-01 0.000000e+00
9.047619e-01 -9.365079e-01 0.000000e+00
9.365079e-01 -9.365079e-01 0.000000e+00
9.682540e-01 -9.365079e-01 0.000000e+00
1.000000e+00 -9.365079e-01 0.000000e+00
-1.000000e+00 -9.047619e-01 0.000000e+00
-9.682540e-01 -9.047619e-01 0.000000e+00
-9.365079e-01 -9.047619e-01 0.000000e+00
-9.047619e-01 -9.047619e-01 0.000000e+00
-8.730159e-01 -9.047619e-01 0.000000e+00
-8.412698e-01 -9.047619e-01 0.000000e+00
-8.095238e-01 -9.047619e-01 0.000000e+00
-7.777778e-01 -9.047619e-01 0.000000e+00
-7.460317e-01 -9.047619e-01 0.000000e+00
-7.142857e-01 -9.047619e-01 0.000000e+00
-6.825397e-01 -9.047619e-01 0.000000e+00
-6.507937e-01 -9.047619e-01 0.000000e+00
-6.190476e-01 -9.047619e-01 0.000000e+00
-5.873016e-01 -9.047619e-01 0.000000e+00
-5.555556e-01 -9.047619e-01 0.000000e+00
-5.238095e-01 -9.047619e-01 0.000000e+00
-4.920635e-01 -9.047619e-01 0.000000e+00
-4.603175e-01 -9.047619e-01 0.000000e+00
-4.285714e-01 -9.047619e-01 0.000000e+00
-3.968254e-01 -9.047619e-01 0.000000e+00
-3.650794e-01 -9.047619e-01 0.000000e+00
-3.333333e-01 -9.047619e-01 0.000000e+00
-3.015873e-01 -9.047619e-01 0.000000e+00
-2.698413e-01 -9.047619e-01 0.000000e+00
-2.380952e-01 -9.047619e-01 0.000000e+00
-2.063492e-01 -9.047619e-01 0.000000e+00
-1.746032e-01 -9.047619e-01 0.000000e+00
-1.428571e-01 -9.047619e-01 0.000000e+00
-1.111111e-01 -9.047619e-01 0.000000e+00
-7.936508e-02 -9.047619e-01 0.000000e+00
-4.761905e-02 -9.047619e-01 0.000000e+00
-1.587302e-02 -9.047619e-01 0.000000e+00
1.587302e-02 -9.047619e-01 0.000000e+00
4.761905e-02 -9.047619e-01 0.000000e+00
7.936508e-02 -9.047619e-01 0.000000e+00
1.111111e-01 -9.047619e-01 0.000000e+00
1.428571e-01 -9.047619e-01 0.000000e+00
1.746032e-01 -9.047619e-01 0.000000e+00
2.063492e-01 -9.047619e-01 0.000000e+00
2.380952e-01 -9.047619e-01 0.000000e+00
2.698413e-01 -9.047619e-01 0.000000e+00
3.015873e-01 -9.047619e-01 0.000000e+00
3.333333e-01 -9.047619e-01 0.000000e+00
3.650794e-01 -9.047619e-01 0.000000e+00
3.968254e-01 -9.047619e-01 0.000000e+00
4.285714e-01 -9.047619e-01 0.000000e+00
4.603175e-01 -9.047619e-01 0.000000e+00
4.920635e-01 -9.047619e-01 0.000000e+00
5.238095e-01 -9.047619e-01 0.000000e+00
5.555556e-01 -9.047619e-01 0.000000e+00
5.873016e-01 -9.047619e-01 0.000000e+00
6.190476e-01 -9.047619e-01 0.000000e+00
[...]
POINT_DATA 4096 
SCALARS concentration double 1 
LOOKUP_TABLE default 
1.358214e+00 
1.339259e+00 
1.320732e+00 
1.302630e+00 
1.284962e+00 
1.267745e+00 
1.250995e+00 
1.234727e+00 
1.218960e+00 
1.203709e+00 
1.188994e+00 
1.174832e+00 
1.161246e+00 
1.148256e+00 
1.135879e+00 
1.124136e+00 
1.113045e+00 
1.102627e+00 
1.092900e+00 
1.083882e+00 
1.075592e+00 
1.068047e+00 
1.061264e+00 
1.055260e+00 
1.050049e+00 
1.045645e+00 
1.042060e+00 
1.039305e+00 
1.037387e+00 
1.036263e+00 
1.036180e+00 
1.037525e+00 
1.040050e+00 
1.043618e+00 
1.048149e+00 
1.053591e+00 
1.059906e+00 
1.067061e+00 
1.075029e+00 
1.083785e+00 
1.093307e+00 
1.103570e+00 
1.114552e+00 
1.126230e+00 
1.138584e+00 
1.151590e+00 
1.165228e+00 
1.179477e+00 
1.194317e+00 
1.209729e+00 
1.225694e+00 
1.242194e+00 
1.259210e+00 
1.276724e+00 
1.294718e+00 
1.313172e+00 
1.332068e+00 
1.351391e+00 
1.371122e+00 
1.391247e+00 
1.411751e+00 
1.432618e+00 
1.453835e+00 
1.475391e+00 
1.332756e+00 
1.313498e+00 
1.294668e+00 
1.276261e+00 
1.258290e+00 
1.240769e+00 
1.223717e+00 
1.207149e+00 
1.191084e+00 
1.175540e+00 
1.160535e+00 
1.146089e+00 
1.132224e+00 
1.118961e+00 
1.106320e+00 
1.094321e+00 
1.082985e+00 
1.072333e+00 
1.062383e+00 
1.053157e+00 
1.044672e+00 
1.036949e+00 
1.030005e+00 
1.023858e+00 
1.018522e+00 
1.014014e+00 
1.010346e+00 
1.007530e+00 
1.005572e+00 
1.004432e+00 
1.004394e+00 
1.005837e+00 
1.008472e+00 
1.012163e+00 
1.016833e+00 
1.022431e+00 
1.028916e+00 
1.036258e+00 
1.044429e+00 
1.053404e+00 
1.063156e+00 
1.073663e+00 
1.084900e+00 
1.096845e+00 
1.109473e+00 
1.122761e+00 
1.136689e+00 
1.151234e+00 
1.166376e+00 
1.182094e+00 
1.198370e+00 
1.215184e+00 
1.232516e+00 
1.250348e+00 
1.268658e+00 
1.287429e+00 
1.306641e+00 
1.326278e+00 
1.346322e+00 
1.366758e+00 
1.387569e+00 
1.408742e+00 
1.430261e+00 
1.452115e+00 
1.307531e+00 
1.287964e+00 
1.268823e+00 
1.250104e+00 
1.231820e+00 
1.213988e+00 
1.196625e+00 
1.179748e+00 
1.163376e+00 
1.147528e+00 
1.132224e+00 
1.117483e+00 
1.103328e+00 
1.089783e+00 
1.076867e+00 
1.064602e+00 
1.053010e+00 
1.042113e+00 
1.031931e+00 
1.022487e+00 
1.013799e+00 
1.005889e+00 
9.987761e-01 
9.924781e-01 
9.870123e-01 
9.823947e-01 
9.786393e-01 
9.757583e-01 
9.737593e-01 
9.726033e-01 
9.726183e-01 
9.741595e-01 
9.769070e-01 
9.807259e-01 
9.855399e-01 
9.912982e-01 
9.979623e-01 
1.005500e+00 
1.013883e+00 
1.023085e+00 
1.033079e+00 
1.043840e+00 
1.055343e+00 
1.067564e+00 
1.080477e+00 
1.094058e+00 
1.108286e+00 
1.123138e+00 
1.138591e+00 
1.154626e+00 
1.171222e+00 
1.188358e+00 
1.206015e+00 
1.224170e+00 
1.242804e+00 
1.261897e+00 
1.281430e+00 
1.301386e+00 
1.321746e+00 
1.342496e+00 
1.363619e+00 
1.385100e+00 
1.406924e+00 
1.429079e+00 
1.282554e+00 
1.262669e+00 
1.243209e+00 
1.224170e+00 
1.205566e+00 
1.187413e+00 
1.169730e+00 
1.152534e+00 
1.135846e+00 
1.119684e+00 
1.104069e+00 
1.089023e+00 
1.074568e+00 
1.060729e+00 
1.047527e+00 
1.034985e+00 
1.023126e+00 
1.011974e+00 
1.001549e+00 
9.918759e-01 
9.829756e-01 
9.748697e-01 
9.675788e-01 
9.611228e-01 
9.555199e-01 
9.507872e-01 
9.469400e-01 
9.439912e-01 
9.419490e-01 
9.407761e-01 
9.408527e-01 
9.424938e-01 
9.453557e-01 
9.493056e-01 
9.542688e-01 
9.601949e-01 
9.670456e-01 
9.747882e-01 
9.833932e-01 
9.928325e-01 
1.003079e+00 
1.014106e+00 
1.025886e+00 
1.038394e+00 
1.051604e+00 
1.065491e+00 
1.080030e+00 
1.095200e+00 
1.110977e+00 
1.127339e+00 
1.144266e+00 
1.161735e+00 
1.179724e+00 
1.198211e+00 
1.217176e+00 
1.236598e+00 
1.256458e+00 
1.276739e+00 
1.297422e+00 
1.318492e+00 
1.339931e+00 
1.361724e+00 
1.383857e+00 
1.406315e+00 
1.257834e+00 
1.237624e+00 
1.217838e+00 
1.198471e+00 
1.179537e+00 
1.161055e+00 
1.143042e+00 
1.125518e+00 
1.108502e+00 
1.092016e+00 
1.076081e+00 
1.060717e+00 
1.045951e+00 
1.031806e+00 
1.018307e+00 
1.005476e+00 
9.933389e-01 
9.819191e-01 
9.712409e-01 
9.613281e-01 
9.522044e-01 
9.438927e-01 
9.364151e-01 
9.297929e-01 
9.240457e-01 
9.191921e-01 
9.152482e-01 
9.122282e-01 
9.101408e-01 
9.089505e-01 
9.090980e-01 
9.108393e-01 
9.138181e-01 
9.179034e-01 
9.230216e-01 
9.291230e-01 
9.361689e-01 
9.441260e-01 
9.529635e-01 
9.626519e-01 
9.731625e-01 
9.844668e-01 
9.965368e-01 
1.009345e+00 
1.022864e+00 
1.037068e+00 
1.051932e+00 
1.067431e+00 
1.083543e+00 
1.100244e+00 
1.117512e+00 
1.135322e+00 
1.153653e+00 
1.172480e+00 
1.191784e+00 
1.211543e+00 
1.231738e+00 
1.252351e+00 
1.273363e+00 
1.294758e+00 
1.316519e+00 
1.338630e+00 
1.361076e+00 
1.383841e+00 
1.233381e+00 
1.212838e+00 
1.192717e+00 
1.173014e+00 
1.153742e+00 
1.134921e+00 
1.116569e+00 
1.098706e+00 
1.081354e+00 
1.064533e+00 
1.048265e+00 
1.032574e+00 
1.017484e+00 
1.003022e+00 
9.892129e-01 
9.760814e-01 
9.636534e-01 
9.519545e-01 
9.410105e-01 
9.308469e-01 
9.214888e-01 
9.129609e-01 
9.052870e-01 
8.984898e-01 
8.925908e-01 
8.876097e-01 
8.835642e-01 
8.804693e-01 
8.783346e-01 
8.771266e-01 
8.773526e-01 
8.791951e-01 
8.822940e-01 
8.865196e-01 
8.917996e-01 
8.980846e-01 
9.053353e-01 
9.135175e-01 
9.225990e-01 
9.325487e-01 
9.433360e-01 
9.549309e-01 
9.673034e-01 
9.804244e-01 
9.942658e-01 
1.008800e+00 
1.024001e+00 
1.039843e+00 
1.056302e+00 
1.073353e+00 
1.090972e+00 
1.109133e+00 
1.127814e+00 
1.146990e+00 
1.166641e+00 
1.186745e+00 
1.207282e+00 
1.228234e+00 
1.249581e+00 
1.271307e+00 
1.293395e+00 
1.315828e+00 
1.338591e+00 
1.361669e+00 
1.209203e+00 
1.188324e+00 
1.167862e+00 
1.147814e+00 
1.128196e+00 
1.109027e+00 
1.090327e+00 
1.072116e+00 
1.054415e+00 
1.037248e+00 
1.020637e+00 
1.004606e+00 
9.891810e-01 
9.743891e-01 
9.602571e-01 
9.468118e-01 
9.340800e-01 
9.220893e-01 
9.108668e-01 
9.004399e-01 
8.908355e-01 
8.820801e-01 
8.741994e-01 
8.672178e-01 
8.611584e-01 
8.560428e-01 
8.518899e-01 
8.487162e-01 
8.465320e-01 
8.453058e-01 
8.456141e-01 
8.475595e-01 
8.507821e-01 
8.551536e-01 
8.606029e-01 
8.670805e-01 
8.745465e-01 
8.829653e-01 
8.923032e-01 
9.025272e-01 
9.136049e-01 
9.255040e-01 
9.381932e-01 
9.516416e-01 
9.658193e-01 
9.806976e-01 
9.962488e-01 
1.012446e+00 
1.029265e+00 
1.046677e+00 
1.064657e+00 
1.083180e+00 
1.102220e+00 
1.121754e+00 
1.141760e+00 
1.162217e+00 
1.183103e+00 
1.204400e+00 
1.226089e+00 
1.248152e+00 
1.270572e+00 
1.293332e+00 
1.316417e+00 
1.339810e+00 
1.185343e+00 
1.164123e+00 
1.143311e+00 
1.122910e+00 
1.102936e+00 
1.083408e+00 
1.064348e+00 
1.045777e+00 
1.027717e+00 
1.010190e+00 
9.932225e-01 
9.768378e-01 
9.610631e-01 
9.459272e-01 
9.314581e-01 
9.176841e-01 
9.046339e-01 
8.923364e-01 
8.808210e-01 
8.701166e-01 
8.602524e-01 
8.512566e-01 
8.431569e-01 
8.359800e-01 
8.297507e-01 
8.244923e-01 
8.202256e-01 
8.169682e-01 
8.147317e-01 
8.134868e-01 
8.138826e-01 
8.159342e-01 
8.192851e-01 
8.238092e-01 
8.294362e-01 
8.361165e-01 
8.438092e-01 
8.524772e-01 
8.620848e-01 
8.725972e-01 
8.839795e-01 
8.961977e-01 
9.092183e-01 
9.230088e-01 
9.375377e-01 
9.527746e-01 
9.686905e-01 
9.852571e-01 
1.002447e+00 
1.020232e+00 
1.038584e+00 
1.057478e+00 
1.076887e+00 
1.096788e+00 
1.117158e+00 
1.137975e+00 
1.159217e+00 
1.180866e+00 
1.202902e+00 
1.225308e+00 
1.248064e+00 
1.271156e+00 
1.294566e+00 
1.318279e+00 
1.161829e+00 
1.140253e+00 
1.119081e+00 
1.098316e+00 
1.077975e+00 
1.058078e+00 
1.038647e+00 
1.019703e+00 
1.001270e+00 
9.833717e-01 
9.660333e-01 
9.492808e-01 
9.331423e-01 
9.176477e-01 
9.028266e-01 
8.887090e-01 
8.753252e-01 
8.627060e-01 
8.508827e-01 
8.398864e-01 
8.297482e-01 
8.204987e-01 
8.121677e-01 
8.047841e-01 
7.983748e-01 
7.929651e-01 
7.885777e-01 
7.852318e-01 
7.829402e-01 
7.816758e-01 
7.821553e-01 
7.843127e-01 
7.877952e-01 
7.924780e-01 
7.982912e-01 
8.051845e-01 
8.131159e-01 
8.220464e-01 
8.319382e-01 
8.427539e-01 
8.544564e-01 
8.670094e-01 
8.803774e-01 
8.945261e-01 
9.094221e-01 
9.250334e-01 
9.413294e-01 
9.582799e-01 
9.758551e-01 
9.940253e-01 
1.012762e+00 
1.032038e+00 
1.051828e+00 
1.072107e+00 
1.092850e+00 
1.114036e+00 
1.135644e+00 
1.157653e+00 
1.180045e+00 
1.202800e+00 
1.225900e+00 
1.249329e+00 
1.273070e+00 
1.297108e+00 
1.138598e+00 
1.116660e+00 
1.095122e+00 
1.073987e+00 
1.053273e+00 
1.032999e+00 
1.013188e+00 
9.938627e-01 
9.750475e-01 
9.567670e-01 
9.390472e-01 
9.219154e-01 
9.054005e-01 
8.895341e-01 
8.743473e-01 
8.598718e-01 
8.461399e-01 
8.331844e-01 
8.210386e-01 
8.097359e-01 
7.993097e-01 
7.897930e-01 
7.812182e-01 
7.736163e-01 
7.670170e-01 
7.614476e-01 
7.569328e-01 
7.534937e-01 
7.511446e-01 
7.498613e-01 
7.504342e-01 
7.527047e-01 
7.563264e-01 
7.611768e-01 
7.671869e-01 
7.743057e-01 
7.824896e-01 
7.916974e-01 
8.018890e-01 
8.130244e-01 
8.250637e-01 
8.379683e-01 
8.517008e-01 
8.662244e-01 
8.815040e-01 
8.975056e-01 
9.141967e-01 
9.315449e-01 
9.495181e-01 
9.680855e-01 
9.872177e-01 
1.006887e+00 
1.027067e+00 
1.047731e+00 
1.068857e+00 
1.090421e+00 
1.112402e+00 
1.134779e+00 
1.157532e+00 
1.180643e+00 
1.204093e+00 
1.227864e+00 
1.251942e+00 
1.276310e+00 
1.115708e+00 
1.093402e+00 
1.071492e+00 
1.049979e+00 
1.028882e+00 
1.008222e+00 
9.880209e-01 
9.683034e-01 
9.490939e-01 
9.304184e-01 
9.123039e-01 
8.947787e-01 
8.778729e-01 
8.616194e-01 
8.460511e-01 
8.312016e-01 
8.171051e-01 
8.037965e-01 
7.913115e-01 
7.796859e-01 
7.689557e-01 
7.591565e-01 
7.503233e-01 
7.424901e-01 
7.356889e-01 
7.299497e-01 
7.252996e-01 
7.217617e-01 
7.193521e-01 
7.180498e-01 
7.187186e-01 
7.211060e-01 
7.248734e-01 
7.299008e-01 
7.361193e-01 
7.434772e-01 
7.519287e-01 
7.614301e-01 
7.719385e-01 
7.834109e-01 
7.958050e-01 
8.090795e-01 
8.231943e-01 
8.381106e-01 
8.537909e-01 
8.701992e-01 
8.873006e-01 
9.050601e-01 
9.234441e-01 
9.424208e-01 
9.619597e-01 
9.820322e-01 
1.002611e+00 
1.023671e+00 
1.045186e+00 
1.067135e+00 
1.089494e+00 
1.112243e+00 
1.135363e+00 
1.158832e+00 
1.182634e+00 
1.206750e+00 
1.231165e+00 
1.255865e+00 
1.093178e+00 
1.070499e+00 
1.048209e+00 
1.026310e+00 
1.004821e+00 
9.837647e-01 
9.631638e-01 
9.430426e-01 
9.234268e-01 
9.043434e-01 
8.858205e-01 
8.678874e-01 
8.505756e-01 
8.339190e-01 
8.179526e-01 
8.027120e-01 
7.882333e-01 
7.745539e-01 
7.617118e-01 
7.497456e-01 
7.386940e-01 
7.285956e-01 
7.194884e-01 
7.114093e-01 
7.043934e-01 
6.984735e-01 
6.936794e-01 
6.900364e-01 
6.875628e-01 
6.862415e-01 
6.870086e-01 
6.895168e-01 
6.934370e-01 
6.986513e-01 
7.050909e-01 
7.127025e-01 
7.214377e-01 
7.312502e-01 
7.420938e-01 
7.539222e-01 
7.666902e-01 
7.803537e-01 
7.948700e-01 
8.101976e-01 
8.262967e-01 
8.431288e-01 
8.606562e-01 
8.788421e-01 
8.976513e-01 
9.170507e-01 
9.370090e-01 
9.574966e-01 
9.784855e-01 
9.999493e-01 
1.021863e+00 
1.044203e+00 
1.066948e+00 
1.090075e+00 
1.113565e+00 
1.137397e+00 
1.161554e+00 
1.186018e+00 
1.210774e+00 
1.235807e+00 
1.071029e+00 
1.047969e+00 
1.025291e+00 
1.002998e+00 
9.811095e-01 
9.596476e-01 
9.386360e-01 
9.180998e-01 
8.980656e-01 
8.785611e-01 
8.596156e-01 
8.412597e-01 
8.235261e-01 
8.064499e-01 
7.900680e-01 
7.744180e-01 
7.595386e-01 
7.454694e-01 
7.322511e-01 
7.199252e-01 
7.085334e-01 
6.981177e-01 
6.887193e-01 
6.803785e-01 
6.731338e-01 
6.670212e-01 
6.620734e-01 
6.583184e-01 
6.557772e-01 
6.544367e-01 
6.553039e-01 
6.579375e-01 
6.620183e-01 
6.674306e-01 
6.741051e-01 
6.819864e-01 
6.910234e-01 
7.011660e-01 
7.123646e-01 
7.245694e-01 
7.377319e-01 
7.518050e-01 
7.667429e-01 
7.825014e-01 
7.990380e-01 
8.163115e-01 
8.342815e-01 
8.529092e-01 
8.721583e-01 
8.919942e-01 
9.123846e-01 
9.332990e-01 
9.547086e-01 
9.765865e-01 
9.989072e-01 
1.021647e+00 
1.044783e+00 
1.068293e+00 
1.092158e+00 
1.116357e+00 
1.140873e+00 
1.165688e+00 
1.190788e+00 
1.216156e+00 
1.049277e+00 
1.025831e+00 
1.002759e+00 
9.800646e-01 
9.577676e-01 
9.358907e-01 
9.144582e-01 
8.934959e-01 
8.730309e-01 
8.530920e-01 
8.337095e-01 
8.149154e-01 
7.967435e-01 
7.792304e-01 
7.624147e-01 
7.463364e-01 
7.310364e-01 
7.165571e-01 
7.029421e-01 
6.902359e-01 
6.784838e-01 
6.677310e-01 
6.580227e-01 
6.494029e-01 
6.419138e-01 
6.355951e-01 
6.304829e-01 
6.266084e-01 
6.239952e-01 
6.226357e-01 
6.236047e-01 
6.263686e-01 
6.306188e-01 
6.362415e-01 
6.431665e-01 
6.513354e-01 
6.606936e-01 
6.711872e-01 
6.827624e-01 
6.953657e-01 
7.089449e-01 
7.234494e-01 
7.388302e-01 
7.550401e-01 
7.720337e-01 
7.897666e-01 
8.081961e-01 
8.272818e-01 
8.469858e-01 
8.672721e-01 
8.881074e-01 
9.094602e-01 
9.313010e-01 
9.536024e-01 
9.763385e-01 
9.994850e-01 
1.023019e+00 
1.046918e+00 
1.071163e+00 
1.095733e+00 
1.120611e+00 
1.145780e+00 
1.171225e+00 
1.196931e+00 
1.027946e+00 
1.004110e+00 
9.806384e-01 
9.575355e-01 
9.348219e-01 
9.125210e-01 
8.906574e-01 
8.692575e-01 
8.483492e-01 
8.279622e-01 
8.081279e-01 
7.888795e-01 
7.702522e-01 
7.522838e-01 
7.350149e-01 
7.184879e-01 
7.027462e-01 
6.878350e-01 
6.738010e-01 
6.606921e-01 
6.485572e-01 
6.374457e-01 
6.274068e-01 
6.184886e-01 
6.107377e-01 
6.041979e-01 
5.989093e-01 
5.949065e-01 
5.922167e-01 
5.908383e-01 
5.919114e-01 
5.948115e-01 
5.992413e-01 
6.050885e-01 
6.122811e-01 
6.207574e-01 
6.304585e-01 
6.413260e-01 
6.533015e-01 
6.663272e-01 
6.803467e-01 
6.953058e-01 
7.111520e-01 
7.278347e-01 
7.453051e-01 
7.635161e-01 
7.824227e-01 
8.019828e-01 
8.221567e-01 
8.429075e-01 
8.642004e-01 
8.860031e-01 
9.082855e-01 
9.310196e-01 
9.541790e-01 
9.777392e-01 
1.001677e+00 
1.025970e+00 
1.050598e+00 
1.075543e+00 
1.100787e+00 
1.126312e+00 
1.152104e+00 
1.178148e+00 
1.007084e+00 
9.828563e-01 
9.589773e-01 
9.354576e-01 
9.123183e-01 
8.895830e-01 
8.672769e-01 
8.454268e-01 
8.240615e-01 
8.032113e-01 
7.829088e-01 
7.631884e-01 
7.440867e-01 
7.256429e-01 
7.078997e-01 
6.909017e-01 
6.746951e-01 
6.593279e-01 
6.448502e-01 
6.313138e-01 
6.187715e-01 
6.072770e-01 
5.968840e-01 
5.876457e-01 
5.796134e-01 
5.728356e-01 
5.673567e-01 
5.632158e-01 
5.604436e-01 
5.590460e-01 
5.602232e-01 
5.632653e-01 
5.678858e-01 
5.739731e-01 
5.814525e-01 
5.902582e-01 
6.003262e-01 
6.115927e-01 
6.239944e-01 
6.374685e-01 
6.519542e-01 
6.673930e-01 
6.837284e-01 
7.009064e-01 
7.188747e-01 
7.375834e-01 
7.569854e-01 
7.770367e-01 
7.976963e-01 
8.189257e-01 
8.406890e-01 
8.629532e-01 
8.856875e-01 
9.088633e-01 
9.324541e-01 
9.564348e-01 
9.807821e-01 
1.005474e+00 
1.030491e+00 
1.055814e+00 
1.081425e+00 
1.107309e+00 
1.133449e+00 
1.159832e+00 
9.867282e-01 
9.620954e-01 
9.378005e-01 
9.138548e-01 
8.902799e-01 
8.670994e-01 
8.443389e-01 
8.220258e-01 
8.001894e-01 
7.788609e-01 
7.580738e-01 
7.378637e-01 
7.182686e-01 
6.993292e-01 
6.810901e-01 
6.635984e-01 
6.469029e-01 
6.310549e-01 
6.161081e-01 
6.021180e-01 
5.891421e-01 
5.772389e-01 
5.664671e-01 
5.568853e-01 
5.485502e-01 
5.415158e-01 
5.358317e-01 
5.315416e-01 
5.286807e-01 
5.272625e-01 
5.285354e-01 
5.317241e-01 
5.365469e-01 
5.428912e-01 
5.506786e-01 
5.598381e-01 
5.702995e-01 
5.819930e-01 
5.948494e-01 
6.088005e-01 
6.237806e-01 
6.397264e-01 
6.565770e-01 
6.742746e-01 
6.927634e-01 
7.119908e-01 
7.319077e-01 
7.524684e-01 
7.736301e-01 
7.953532e-01 
8.176009e-01 
8.403392e-01 
8.635369e-01 
8.871651e-01 
9.111966e-01 
9.356061e-01 
9.603705e-01 
9.854682e-01 
1.010879e+00 
1.036586e+00 
1.062570e+00 
1.088815e+00 
1.115307e+00 
1.142032e+00 
9.668065e-01 
9.417642e-01 
9.170522e-01 
8.926784e-01 
8.686642e-01 
8.450337e-01 
8.218125e-01 
7.990285e-01 
7.767115e-01 
7.548936e-01 
7.336089e-01 
7.128944e-01 
6.927894e-01 
6.733363e-01 
6.545813e-01 
6.365738e-01 
6.193659e-01 
6.030121e-01 
5.875699e-01 
5.730992e-01 
5.596623e-01 
5.473229e-01 
5.361457e-01 
5.261951e-01 
5.175344e-01 
5.102236e-01 
5.043184e-01 
4.998679e-01 
4.969127e-01 
4.954765e-01 
4.968578e-01 
5.002056e-01 
5.052476e-01 
5.118700e-01 
5.199903e-01 
5.295313e-01 
5.404157e-01 
5.525669e-01 
5.659089e-01 
5.803675e-01 
5.958712e-01 
6.123516e-01 
6.297435e-01 
6.479843e-01 
6.670153e-01 
6.867814e-01 
7.072313e-01 
7.283175e-01 
7.499960e-01 
7.722260e-01 
7.949698e-01 
8.181931e-01 
8.418638e-01 
8.659527e-01 
8.904321e-01 
9.152768e-01 
9.404640e-01 
9.659724e-01 
9.917824e-01 
1.017876e+00 
1.044236e+00 
1.070846e+00 
1.097692e+00 
1.124760e+00 
9.473974e-01 
9.219469e-01 
8.968139e-01 
8.720068e-01 
8.475471e-01 
8.234590e-01 
7.997683e-01 
7.765031e-01 
7.536938e-01 
7.313729e-01 
7.095756e-01 
6.883398e-01 
6.677062e-01 
6.477187e-01 
6.284251e-01 
6.098776e-01 
5.921311e-01 
5.752436e-01 
5.592768e-01 
5.442951e-01 
5.303662e-01 
5.175596e-01 
5.059466e-01 
4.955984e-01 
4.865854e-01 
4.789751e-01 
4.728299e-01 
4.682055e-01 
4.651485e-01 
4.636948e-01 
4.651858e-01 
4.687028e-01 
4.739809e-01 
4.809047e-01 
4.893859e-01 
4.993395e-01 
5.106802e-01 
5.233232e-01 
5.371849e-01 
5.521841e-01 
5.682430e-01 
5.852876e-01 
6.032475e-01 
6.220565e-01 
6.416523e-01 
6.619774e-01 
6.829784e-01 
7.046062e-01 
7.268154e-01 
7.495642e-01 
7.728145e-01 
7.965309e-01 
8.206812e-01 
8.452354e-01 
8.701661e-01 
8.954483e-01 
9.210595e-01 
9.469788e-01 
9.731867e-01 
9.996654e-01 
1.026398e+00 
1.053370e+00 
1.080565e+00 
1.107972e+00 
9.285330e-01 
9.026723e-01 
8.771150e-01 
8.518703e-01 
8.269598e-01 
8.024074e-01 
7.782391e-01 
7.544832e-01 
7.311703e-01 
7.083335e-01 
6.860087e-01 
6.642347e-01 
6.430535e-01 
6.225105e-01 
6.026554e-01 
5.835424e-01 
5.652297e-01 
5.477790e-01 
5.312561e-01 
5.157306e-01 
5.012757e-01 
4.879678e-01 
4.758851e-01 
4.651070e-01 
4.557119e-01 
4.477758e-01 
4.413693e-01 
4.365554e-01 
4.333881e-01 
4.319175e-01 
4.335196e-01 
4.372173e-01 
4.427513e-01 
4.500028e-01 
4.588762e-01 
4.692773e-01 
4.811112e-01 
4.942837e-01 
5.087024e-01 
5.242780e-01 
5.409261e-01 
5.585664e-01 
5.771237e-01 
5.965274e-01 
6.167123e-01 
6.376181e-01 
6.591896e-01 
6.813759e-01 
7.041306e-01 
7.274111e-01 
7.511783e-01 
7.753966e-01 
8.000333e-01 
8.250582e-01 
8.504444e-01 
8.761672e-01 
9.022043e-01 
9.285352e-01 
9.551409e-01 
9.820040e-01 
1.009108e+00 
1.036439e+00 
1.063981e+00 
1.091722e+00 
9.102445e-01 
8.839724e-01 
8.579887e-01 
8.323032e-01 
8.069374e-01 
7.819150e-01 
7.572620e-01 
7.330066e-01 
7.091796e-01 
6.858145e-01 
6.629477e-01 
6.406188e-01 
6.188710e-01 
5.977511e-01 
5.773106e-01 
5.576056e-01 
5.386976e-01 
5.206521e-01 
5.035393e-01 
4.874343e-01 
4.724164e-01 
4.585693e-01 
4.459793e-01 
4.347348e-01 
4.249239e-01 
4.166321e-01 
4.099398e-01 
4.049188e-01 
4.016315e-01 
4.001448e-01 
4.018594e-01 
4.057513e-01 
4.115639e-01 
4.191734e-01 
4.284750e-01 
4.393632e-01 
4.517319e-01 
4.654755e-01 
4.804918e-01 
4.966828e-01 
5.139563e-01 
5.322260e-01 
5.514111e-01 
5.714370e-01 
5.922353e-01 
6.137434e-01 
6.359042e-01 
6.586653e-01 
6.819794e-01 
7.058031e-01 
7.300970e-01 
7.548249e-01 
7.799540e-01 
8.054545e-01 
8.312999e-01 
8.574658e-01 
8.839302e-01 
9.106731e-01 
9.376760e-01 
9.649220e-01 
9.923954e-01 
1.020082e+00 
1.047967e+00 
1.076039e+00 
8.925680e-01 
8.658842e-01 
8.394729e-01 
8.133443e-01 
7.875197e-01 
7.620226e-01 
7.368785e-01 
7.121157e-01 
6.877648e-01 
6.638594e-01 
6.404365e-01 
6.175362e-01 
5.952027e-01 
5.734841e-01 
5.524334e-01 
5.321090e-01 
5.125752e-01 
4.939013e-01 
4.761624e-01 
4.594390e-01 
4.438174e-01 
4.293892e-01 
4.162500e-01 
4.044982e-01 
3.942331e-01 
3.855518e-01 
3.785456e-01 
3.732973e-01 
3.698787e-01 
3.683767e-01 
3.702053e-01 
3.743074e-01 
3.804250e-01 
3.884276e-01 
3.981986e-01 
4.096190e-01 
4.225690e-01 
4.369301e-01 
4.525887e-01 
4.694370e-01 
4.873749e-01 
5.063091e-01 
5.261537e-01 
5.468299e-01 
5.682664e-01 
5.903981e-01 
6.131664e-01 
6.365178e-01 
6.604040e-01 
6.847813e-01 
7.096099e-01 
7.348537e-01 
7.604800e-01 
7.864597e-01 
8.127665e-01 
8.393766e-01 
8.662686e-01 
8.934227e-01 
9.208211e-01 
9.484475e-01 
9.762868e-01 
1.004325e+00 
1.032549e+00 
1.060947e+00 
8.755412e-01 
8.484463e-01 
8.216067e-01 
7.950336e-01 
7.687475e-01 
7.427716e-01 
7.171310e-01 
6.918535e-01 
6.669696e-01 
6.425129e-01 
6.185202e-01 
5.950324e-01 
5.720942e-01 
5.497549e-01 
5.280690e-01 