# vtk DataFile Version 2.0 
Quadtree Mesh 
ASCII 
DATASET UNSTRUCTURED_GRID 
POINTS 4096 double 
-1.000000e+00 -1.000000e+00 0.000000e+00
-9.682540e-01 -1.000000e+00 0.000000e+00
-9.365079e-01 -1.000000e+00 0.000000e+00
-9.047619e-01 -1.000000e+00 0.000000e+00
-8.730159e-01 -1.000000e+00 0.000000e+00
-8.412698e-01 -1.000000e+00 0.000000e+00
-8.095238e-01 -1.000000e+00 0.000000e+00
-7.777778e-01 -1.000000e+00 0.000000e+00
-7.460317e-01 -1.000000e+00 0.000000e+00
-7.142857e-01 -1.000000e+00 0.000000e+00
-6.825397e-01 -1.000000e+00 0.000000e+00
-6.507937e-01 -1.000000e+00 0.000000e+00
-6.190476e-01 -1.000000e+00 0.000000e+00
-5.873016e-01 -1.000000e+00 0.000000e+00
-5.555556e-01 -1.000000e+00 0.000000e+00
-5.238095e-01 -1.000000e+00 0.000000e+00
-4.920635e-01 -1.000000e+00 0.000000e+00
-4.603175e-01 -1.000000e+00 0.000000e+00
-4.285714e-01 -1.000000e+00 0.000000e+00
-3.968254e-01 -1.000000e+00 0.000000e+00
-3.650794e-01 -1.000000e+00 0.000000e+00
-3.333333e-01 -1.000000e+00 0.000000e+00
-3.015873e-01 -1.000000e+00 0.000000e+00
-2.698413e-01 -1.000000e+00 0.000000e+00
-2.380952e-01 -1.000000e+00 0.000000e+00
-2.063492e-01 -1.000000e+00 0.000000e+00
-1.746032e-01 -1.000000e+00 0.000000e+00
-1.428571e-01 -1.000000e+00 0.000000e+00
-1.111111e-01 -1.000000e+00 0.000000e+00
-7.936508e-02 -1.000000e+00 0.000000e+00
-4.761905e-02 -1.000000e+00 0.000000e+00
-1.587302e-02 -1.000000e+00 0.000000e+00
1.587302e-02 -1.000000e+00 0.000000e+00
4.761905e-02 -1.000000e+00 0.000000e+00
7.936508e-02 -1.000000e+00 0.000000e+00
1.111111e-01 -1.000000e+00 0.000000e+00
1.428571e-01 -1.000000e+00 0.000000e+00
1.746032e-01 -1.000000e+00 0.000000e+00
2.063492e-01 -1.000000e+00 0.000000e+00
2.380952e-01 -1.000000e+00 0.000000e+00
2.698413e-01 -1.000000e+00 0.000000e+00
3.015873e-01 -1.000000e+00 0.000000e+00
3.333333e-01 -1.000000e+00 0.000000e+00
3.650794e-01 -1.000000e+00 0.000000e+00
3.968254e-01 -1.000000e+00 0.000000e+00
4.285714e-01 -1.000000e+00 0.000000e+00
4.603175e-01 -1.000000e+00 0.000000e+00
4.920635e-01 -1.000000e+00 0.000000e+00
5.238095e-01 -1.000000e+00 0.000000e+00
5.555556e-01 -1.000000e+00 0.000000e+00
5.873016e-01 -1.000000e+00 0.000000e+00
6.190476e-01 -1.000000e+00 0.000000e+00
6.507937e-01 -1.000000e+00 0.000000e+00
6.825397e-01 -1.000000e+00 0.000000e+00
7.142857e-01 -1.000000e+00 0.000000e+00
7.460317e-01 -1.000000e+00 0.000000e+00
7.777778e-01 -1.000000e+00 0.000000e+00
8.095238e-01 -1.000000e+00 0.000000e+00
8.412698e-01 -1.000000e+00 0.000000e+00
8.730159e-01 -1.000000e+00 0.000000e+00
9.047619e-01 -1.000000e+00 0.000000e+00
9.365079e-01 -1.000000e+00 0.000000e+00
9.682540e-01 -1.000000e+00 0.000000e+00
1.000000e+00 -1.000000e+00 0.000000e+00
-1.000000e+00 -9.682540e-01 0.000000e+00
-9.682540e-01 -9.682540e-01 0.000000e+00
-9.365079e-01 -9.682540e-01 0.000000e+00
-9.047619e-01 -9.682540e-01 0.000000e+00
-8.730159e-01 -9.682540e-01 0.000000e+00
-8.412698e-01 -9.682540e-01 0.000000e+00
-8.095238e-01 -9.682540e-01 0.000000e+00
-7.777778e-01 -9.682540e-01 0.000000e+00
-7.460317e-01 -9.682540e-01 0.000000e+00
-7.142857e-01 -9.682540e-01 0.000000e+00
-6.825397e-01 -9.682540e-01 0.000000e+00
-6.507937e-01 -9.682540e-01 0.000000e+00
-6.190476e-01 -9.682540e-01 0.000000e+00
-5.873016e-01 -9.682540e-01 0.000000e+00
-5.555556e-01 -9.682540e-01 0.000000e+00
-5.238095e-01 -9.682540e-01 0.000000e+00
-4.920635e-01 -9.682540e-01 0.000000e+00
-4.603175e-01 -9.682540e-01 0.000000e+00
-4.285714e-01 -9.682540e-01 0.000000e+00
-3.968254e-01 -9.682540e-01 0.000000e+00
-3.650794e-01 -9.682540e-01 0.000000e+00
-3.333333e-01 -9.682540e-01 0.000000e+00
-3.015873e-01 -9.682540e-01 0.000000e+00
-2.698413e-01 -9.682540e-01 0.000000e+00
-2.380952e-01 -9.682540e-01 0.000000e+00
-2.063492e-01 -9.682540e-01 0.000000e+00
-1.746032e-01 -9.682540e-01 0.000000e+00
-1.428571e-01 -9.682540e-01 0.000000e+00
-1.111111e-01 -9.682540e-01 0.000000e+00
-7.936508e-02 -9.682540e-01 0.000000e+00
-4.761905e-02 -9.682540e-01 0.000000e+00
-1.587302e-02 -9.682540e-01 0.000000e+00
1.587302e-02 -9.682540e-01 0.000000e+00
4.761905e-02 -9.682540e-01 0.000000e+00
7.936508e-02 -9.682540e-01 0.000000e+00
1.111111e-01 -9.682540e-01 0.000000e+00
1.428571e-01 -9.682540e-01 0.000000e+00
1.746032e-01 -9.682540e-01 0.000000e+00
2.063492e-01 -9.682540e-01 0.000000e+00
2.380952e-01 -9.682540e-01 0.000000e+00
2.698413e-01 -9.682540e-01 0.000000e+00
3.015873e-01 -9.682540e-01 0.000000e+00
3.333333e-01 -9.682540e-01 0.000000e+00
3.650794e-01 -9.682540e-01 0.000000e+00
3.968254e-01 -9.682540e-01 0.000000e+00
4.285714e-01 -9.682540e-01 0.000000e+00
4.603175e-01 -9.682540e-01 0.000000e+00
4.920635e-01 -9.682540e-01 0.000000e+00
5.238095e-01 -9.682540e-01 0.000000e+00
5.555556e-01 -9.682540e-01 0.000000e+00
5.873016e-01 -9.682540e-01 0.000000e+00
6.190476e-01 -9.682540e-01 0.000000e+00
6.507937e-01 -9.682540e-01 0.000000e+00
6.825397e-01 -9.682540e-01 0.000000e+00
7.142857e-01 -9.682540e-01 0.000000e+00
7.460317e-01 -9.682540e-01 0.000000e+00
7.777778e-01 -9.682540e-01 0.000000e+00
8.095238e-01 -9.682540e-01 0.000000e+00
8.412698e-01 -9.682540e-01 0.000000e+00
8.730159e-01 -9.682540e-01 0.000000e+00
9.047619e-01 -9.682540e-01 0.000000e+00
9.365079e-01 -9.682540e-01 0.000000e+00
9.682540e-01 -9.682540e-01 0.000000e+00
1.000000e+00 -9.682540e-01 0.000000e+00
-1.000000e+00 -9.365079e-01 0.000000e+00
-9.682540e-01 -9.365079e-01 0.000000e+00
-9.365079e-01 -9.365079e-01 0.000000e+00
-9.047619e-01 -9.365079e-01 0.000000e+00
-8.730159e-01 -9.365079e-01 0.000000e+00
-8.412698e-01 -9.365079e-01 0.000000e+00
-8.095238e-01 -9.365079e-01 0.000000e+00
-7.777778e-01 -9.365079e-01 0.000000e+00
-7.460317e-01 -9.365079e-01 0.000000e+00
-7.142857e-01 -9.365079e-01 0.000000e+00
-6.825397e-01 -9.365079e-01 0.000000e+00
-6.507937e-01 -9.365079e-01 0.000000e+00
-6.190476e-01 -9.365079e-01 0.000000e+00
-5.873016e-01 -9.365079e-01 0.000000e+00
-5.555556e-01 -9.365079e-01 0.000000e+00
-5.238095e-01 -9.365079e-01 0.000000e+00
-4.920635e-01 -9.365079e-01 0.000000e+00
-4.603175e-01 -9.365079e-01 0.000000e+00
-4.285714e-01 -9.365079e-01 0.000000e+00
-3.968254e-01 -9.365079e-01 0.000000e+00
-3.650794e-01 -9.365079e-01 0.000000e+00
-3.333333e-01 -9.365079e-01 0.000000e+00
-3.015873e-01 -9.365079e-01 0.000000e+00
-2.698413e-01 -9.365079e-01 0.000000e+00
-2.380952e-01 -9.365079e-01 0.000000e+00
-2.063492e-01 -9.365079e-01 0.000000e+00
-1.746032e-01 -9.365079e-01 0.000000e+00
-1.428571e-01 -9.365079e-01 0.000000e+00
-1.111111e-01 -9.365079e-01 0.000000e+00
-7.936508e-02 -9.365079e-01 0.000000e+00
-4.761905e-02 -9.365079e-01 0.000000e+00
-1.587302e-02 -9.365079e-01 0.000000e+00
1.587302e-02 -9.365079e-01 0.000000e+00
4.761905e-02 -9.365079e-01 0.000000e+00
7.936508e-02 -9.365079e-01 0.000000e+00
1.111111e-01 -9.365079e-01 0.000000e+00
1.428571e-01 -9.365079e-01 0.000000e+00
1.746032e-01 -9.365079e-01 0.000000e+00
2.063492e-01 -9.365079e-01 0.000000e+00
2.380952e-01 -9.365079e-01 0.000000e+00
2.698413e-01 -9.365079e-01 0.000000e+00
3.015873e-01 -9.365079e-01 0.000000e+00
3.333333e-01 -9.365079e-01 0.000000e+00
3.650794e-01 -9.365079e-01 0.000000e+00
3.968254e-01 -9.365079e-01 0.000000e+00
4.285714e-01 -9.365079e-01 0.000000e+00
4.603175e-01 -9.365079e-01 0.000000e+00
4.920635e-01 -9.365079e-01 0.000000e+00
5.238095e-01 -9.365079e-01 0.000000e+00
5.555556e-01 -9.365079e-01 0.000000e+00
5.873016e-01 -9.365079e-01 0.000000e+00
6.190476e-01 -9.365079e-01 0.000000e+00
6.507937e-01 -9.365079e-01 0.000000e+00
6.825397e-01 -9.365079e-01 0.000000e+00
7.142857e-01 -9.365079e-01 0.000000e+00
7.460317e-01 -9.365079e-01 0.000000e+00
7.777778e-01 -9.365079e-01 0.000000e+00
8.095238e-01 -9.365079e-01 0.000000e+00
8.412698e-01 -9.365079e-01 0.000000e+00
8.730159e-01 -9.365079e-01 0.000000e+00
9.047619e-01 -9.365079e-01 0.000000e+00
9.365079e-01 -9.365079e-01 0.000000e+00
9.682540e-01 -9.365079e-01 0.000000e+00
1.000000e+00 -9.365079e-01 0.000000e+00
-1.000000e+00 -9.047619e-01 0.000000e+00
-9.682540e-01 -9.047619e-01 0.000000e+00
-9.365079e-01 -9.047619e-01 0.000000e+00
-9.047619e-01 -9.047619e-01 0.000000e+00
-8.730159e-01 -9.047619e-01 0.000000e+00
-8.412698e-01 -9.047619e-01 0.000000e+00
-8.095238e-01 -9.047619e-01 0.000000e+00
-7.777778e-01 -9.047619e-01 0.000000e+00
-7.460317e-01 -9.047619e-01 0.000000e+00
-7.142857e-01 -9.047619e-01 0.000000e+00
-6.825397e-01 -9.047619e-01 0.000000e+00
-6.507937e-01 -9.047619e-01 0.000000e+00
-6.190476e-01 -9.047619e-01 0.000000e+00
-5.873016e-01 -9.047619e-01 0.000000e+00
-5.555556e-01 -9.047619e-01 0.000000e+00
-5.238095e-01 -9.047619e-01 0.000000e+00
-4.920635e-01 -9.047619e-01 0.000000e+00
-4.603175e-01 -9.047619e-01 0.000000e+00
-4.285714e-01 -9.047619e-01 0.000000e+00
-3.968254e-01 -9.047619e-01 0.000000e+00
-3.650794e-01 -9.047619e-01 0.000000e+00
-3.333333e-01 -9.047619e-01 0.000000e+00
-3.015873e-01 -9.047619e-01 0.000000e+00
-2.698413e-01 -9.047619e-01 0.000000e+00
-2.380952e-01 -9.047619e-01 0.000000e+00
-2.063492e-01 -9.047619e-01 0.000000e+00
-1.746032e-01 -9.047619e-01 0.000000e+00
-1.428571e-01 -9.047619e-01 0.000000e+00
-1.111111e-01 -9.047619e-01 0.000000e+00
-7.936508e-02 -9.047619e-01 0.000000e+00
-4.761905e-02 -9.047619e-01 0.000000e+00
-1.587302e-02 -9.047619e-01 0.000000e+00
1.587302e-02 -9.047619e-01 0.000000e+00
4.761905e-02 -9.047619e-01 0.000000e+00
7.936508e-02 -9.047619e-01 0.000000e+00
1.111111e-01 -9.047619e-01 0.000000e+00
1.428571e-01 -9.047619e-01 0.000000e+00
1.746032e-01 -9.047619e-01 0.000000e+00
2.063492e-01 -9.047619e-01 0.000000e+00
2.380952e-01 -9.047619e-01 0.000000e+00
2.698413e-01 -9.047619e-01 0.000000e+00
3.015873e-01 -9.047619e-01 0.000000e+00
3.333333e-01 -9.047619e-01 0.000000e+00
3.650794e-01 -9.047619e-01 0.000000e+00
3.968254e-01 -9.047619e-01 0.000000e+00
4.285714e-01 -9.047619e-01 0.000000e+00
4.603175e-01 -9.047619e-01 0.000000e+00
4.920635e-01 -9.047619e-01 0.000000e+00
5.238095e-01 -9.047619e-01 0.000000e+00
5.555556e-01 -9.047619e-01 0.000000e+00
5.873016e-01 -9.047619e-01 0.000000e+00
6.190476e-01 -9.047619e-01 0.000000e+00
[...]
POINT_DATA 4096 
SCALARS concentration double 1 
LOOKUP_TABLE default 
1.342982e+00 
1.317978e+00 
1.293153e+00 
1.268572e+00 
1.244257e+00 
1.220222e+00 
1.196483e+00 
1.173053e+00 
1.149949e+00 
1.127187e+00 
1.104784e+00 
1.082760e+00 
1.061133e+00 
1.039923e+00 
1.019153e+00 
9.988441e-01 
9.790215e-01 
9.597100e-01 
9.409360e-01 
9.227272e-01 
9.051129e-01 
8.881232e-01 
8.717897e-01 
8.561449e-01 
8.412226e-01 
8.270571e-01 
8.136838e-01 
8.011382e-01 
7.894564e-01 
7.786744e-01 
7.688283e-01 
7.599545e-01 
7.520880e-01 
7.452588e-01 
7.394921e-01 
7.348132e-01 
7.312483e-01 
7.288246e-01 
7.275760e-01 
7.279572e-01 
7.299984e-01 
7.334965e-01 
7.382967e-01 
7.442976e-01 
7.514331e-01 
7.596539e-01 
7.689171e-01 
7.791818e-01 
7.904075e-01 
8.025538e-01 
8.155806e-01 
8.294483e-01 
8.441178e-01 
8.595513e-01 
8.757117e-01 
8.925634e-01 
9.100720e-01 
9.282044e-01 
9.469290e-01 
9.662156e-01 
9.860355e-01 
1.006361e+00 
1.027167e+00 
1.048436e+00 
1.323569e+00 
1.298250e+00 
1.273102e+00 
1.248192e+00 
1.223541e+00 
1.199163e+00 
1.175073e+00 
1.151286e+00 
1.127818e+00 
1.104684e+00 
1.081904e+00 
1.059495e+00 
1.037477e+00 
1.015870e+00 
9.946977e-01 
9.739825e-01 
9.537493e-01 
9.340241e-01 
9.148345e-01 
8.962093e-01 
8.781791e-01 
8.607756e-01 
8.440319e-01 
8.279825e-01 
8.126629e-01 
7.981099e-01 
7.843609e-01 
7.714541e-01 
7.594281e-01 
7.483219e-01 
7.381749e-01 
7.290265e-01 
7.209142e-01 
7.138705e-01 
7.079229e-01 
7.030994e-01 
6.994287e-01 
6.969407e-01 
6.956728e-01 
6.961267e-01 
6.982958e-01 
7.019550e-01 
7.069444e-01 
7.131633e-01 
7.205465e-01 
7.290439e-01 
7.386105e-01 
7.492028e-01 
7.607772e-01 
7.732903e-01 
7.866990e-01 
8.009609e-01 
8.160345e-01 
8.318794e-01 
8.484566e-01 
8.657284e-01 
8.836588e-01 
9.022132e-01 
9.213586e-01 
9.410637e-01 
9.612987e-01 
9.820357e-01 
1.003248e+00 
1.024917e+00 
1.304588e+00 
1.278948e+00 
1.253475e+00 
1.228234e+00 
1.203244e+00 
1.178520e+00 
1.154076e+00 
1.129927e+00 
1.106089e+00 
1.082578e+00 
1.059412e+00 
1.036611e+00 
1.014193e+00 
9.921804e-01 
9.705955e-01 
9.494623e-01 
9.288063e-01 
9.086545e-01 
8.890354e-01 
8.699791e-01 
8.515174e-01 
8.336835e-01 
8.165124e-01 
8.000404e-01 
7.843050e-01 
7.693454e-01 
7.552014e-01 
7.419139e-01 
7.295244e-01 
7.180754e-01 
7.076097e-01 
6.981691e-01 
6.897942e-01 
6.825205e-01 
6.763786e-01 
6.713996e-01 
6.676149e-01 
6.650572e-01 
6.637683e-01 
6.643002e-01 
6.666031e-01 
6.704301e-01 
6.756173e-01 
6.820658e-01 
6.897107e-01 
6.985007e-01 
7.083881e-01 
7.193261e-01 
7.312678e-01 
7.441663e-01 
7.579753e-01 
7.726494e-01 
7.881443e-01 
8.044171e-01 
8.214266e-01 
8.391331e-01 
8.574988e-01 
8.764876e-01 
8.960651e-01 
9.161990e-01 
9.368586e-01 
9.580150e-01 
9.796412e-01 
1.001717e+00 
1.286049e+00 
1.260088e+00 
1.234289e+00 
1.208715e+00 
1.183384e+00 
1.158310e+00 
1.133508e+00 
1.108993e+00 
1.084780e+00 
1.060886e+00 
1.037329e+00 
1.014127e+00 
9.913017e-01 
9.688737e-01 
9.468662e-01 
9.253040e-01 
9.042132e-01 
8.836217e-01 
8.635591e-01 
8.440566e-01 
8.251474e-01 
8.068663e-01 
7.892499e-01 
7.723364e-01 
7.561657e-01 
7.407793e-01 
7.262196e-01 
7.125305e-01 
6.997569e-01 
6.879449e-01 
6.771406e-01 
6.673889e-01 
6.587339e-01 
6.512146e-01 
6.448651e-01 
6.397198e-01 
6.358133e-01 
6.331814e-01 
6.318707e-01 
6.324865e-01 
6.349294e-01 
6.389317e-01 
6.443275e-01 
6.510193e-01 
6.589425e-01 
6.680435e-01 
6.782715e-01 
6.895759e-01 
7.019058e-01 
7.152108e-01 
7.294408e-01 
7.445473e-01 
7.604829e-01 
7.772022e-01 
7.946616e-01 
8.128193e-01 
8.316357e-01 
8.510730e-01 
8.710957e-01 
8.916704e-01 
9.127655e-01 
9.343516e-01 
9.564007e-01 
9.788923e-01 
1.267967e+00 
1.241686e+00 
1.215561e+00 
1.189652e+00 
1.163978e+00 
1.138553e+00 
1.113390e+00 
1.088505e+00 
1.063913e+00 
1.039630e+00 
1.015675e+00 
9.920663e-01 
9.688248e-01 
9.459724e-01 
9.235326e-01 
9.015306e-01 
8.799932e-01 
8.589491e-01 
8.384290e-01 
8.184651e-01 
7.990921e-01 
7.803462e-01 
7.622659e-01 
7.448913e-01 
7.282646e-01 
7.124298e-01 
6.974324e-01 
6.833191e-01 
6.701389e-01 
6.579418e-01 
6.467769e-01 
6.366933e-01 
6.277390e-01 
6.199569e-01 
6.133850e-01 
6.080616e-01 
6.040247e-01 
6.013136e-01 
5.999805e-01 
6.006862e-01 
6.032756e-01 
6.074619e-01 
6.130785e-01 
6.200296e-01 
6.282495e-01 
6.376822e-01 
6.482726e-01 
6.599660e-01 
6.727071e-01 
6.864412e-01 
7.011146e-01 
7.166751e-01 
7.330723e-01 
7.502578e-01 
7.681857e-01 
7.868119e-01 
8.060949e-01 
8.259957e-01 
8.464775e-01 
8.675058e-01 
8.890484e-01 
9.110750e-01 
9.335570e-01 
9.564729e-01 
1.250361e+00 
1.223761e+00 
1.197310e+00 
1.171066e+00 
1.145048e+00 
1.119270e+00 
1.093744e+00 
1.068485e+00 
1.043510e+00 
1.018834e+00 
9.944750e-01 
9.704530e-01 
9.467884e-01 
9.235033e-01 
9.006218e-01 
8.781695e-01 
8.561738e-01 
8.346643e-01 
8.136725e-01 
7.932318e-01 
7.733781e-01 
7.541493e-01 
7.355855e-01 
7.177290e-01 
7.006244e-01 
6.843181e-01 
6.688589e-01 
6.542972e-01 
6.406860e-01 
6.280789e-01 
6.165293e-01 
6.060907e-01 
5.968157e-01 
5.887516e-01 
5.819410e-01 
5.764263e-01 
5.722493e-01 
5.694535e-01 
5.680971e-01 
5.688989e-01 
5.716415e-01 
5.760218e-01 
5.818734e-01 
5.891017e-01 
5.976394e-01 
6.074264e-01 
6.184034e-01 
6.305104e-01 
6.436873e-01 
6.578751e-01 
6.730157e-01 
6.890532e-01 
7.059338e-01 
7.236063e-01 
7.420219e-01 
7.611346e-01 
7.809011e-01 
8.012809e-01 
8.222362e-01 
8.437316e-01 
8.657337e-01 
8.882114e-01 
9.111356e-01 
9.344841e-01 
1.233258e+00 
1.206336e+00 
1.179559e+00 
1.152981e+00 
1.126618e+00 
1.100484e+00 
1.074593e+00 
1.048959e+00 
1.023596e+00 
9.985227e-01 
9.737554e-01 
9.493140e-01 
9.252192e-01 
9.014935e-01 
8.781612e-01 
8.552482e-01 
8.327827e-01 
8.107949e-01 
7.893171e-01 
7.683838e-01 
7.480321e-01 
7.283015e-01 
7.092338e-01 
6.908734e-01 
6.732674e-01 
6.564652e-01 
6.405187e-01 
6.254823e-01 
6.114133e-01 
5.983695e-01 
5.864090e-01 
5.755903e-01 
5.659709e-01 
5.576035e-01 
5.505356e-01 
5.448147e-01 
5.404870e-01 
5.376000e-01 
5.362194e-01 
5.371236e-01 
5.400269e-01 
5.446126e-01 
5.507157e-01 
5.582417e-01 
5.671205e-01 
5.772874e-01 
5.886772e-01 
6.012245e-01 
6.148641e-01 
6.295317e-01 
6.451648e-01 
6.617035e-01 
6.790904e-01 
6.972714e-01 
7.161949e-01 
7.358128e-01 
7.560802e-01 
7.769553e-01 
7.983989e-01 
8.203744e-01 
8.428476e-01 
8.657866e-01 
8.891617e-01 
9.129503e-01 
1.216663e+00 
1.189416e+00 
1.162314e+00 
1.135400e+00 
1.108693e+00 
1.082204e+00 
1.055946e+00 
1.029933e+00 
1.004181e+00 
9.787067e-01 
9.535267e-01 
9.286609e-01 
9.041300e-01 
8.799567e-01 
8.561654e-01 
8.327825e-01 
8.098366e-01 
7.873583e-01 
7.653808e-01 
7.439396e-01 
7.230730e-01 
7.028218e-01 
6.832298e-01 
6.643436e-01 
6.462125e-01 
6.288891e-01 
6.124287e-01 
5.968903e-01 
5.823355e-01 
5.688266e-01 
5.564272e-01 
5.452013e-01 
5.352119e-01 
5.265176e-01 
5.191722e-01 
5.132288e-01 
5.087385e-01 
5.057536e-01 
5.043482e-01 
5.053620e-01 
5.084346e-01 
5.132393e-01 
5.196130e-01 
5.274603e-01 
5.367067e-01 
5.472815e-01 
5.591133e-01 
5.721303e-01 
5.862614e-01 
6.014368e-01 
6.175893e-01 
6.346546e-01 
6.525717e-01 
6.712833e-01 
6.907354e-01 
7.108779e-01 
7.316641e-01 
7.530505e-01 
7.749966e-01 
7.974648e-01 
8.204199e-01 
8.438295e-01 
8.676637e-01 
8.918990e-01 
1.200531e+00 
1.172976e+00 
1.145553e+00 
1.118308e+00 
1.091259e+00 
1.064416e+00 
1.037794e+00 
1.011405e+00 
9.852654e-01 
9.593900e-01 
9.337969e-01 
9.085054e-01 
8.835362e-01 
8.589119e-01 
8.346571e-01 
8.107982e-01 
7.873642e-01 
7.643862e-01 
7.418980e-01 
7.199359e-01 
6.985394e-01 
6.777507e-01 
6.576152e-01 
6.381818e-01 
6.195023e-01 
6.016323e-01 
5.846309e-01 
5.685618e-01 
5.534911e-01 
5.394865e-01 
5.266176e-01 
5.149545e-01 
5.045670e-01 
4.955204e-01 
4.878755e-01 
4.816916e-01 
4.770256e-01 
4.739352e-01 
4.725038e-01 
4.736192e-01 
4.768642e-01 
4.819011e-01 
4.885657e-01 
4.967596e-01 
5.064026e-01 
5.174167e-01 
5.297229e-01 
5.432424e-01 
5.578974e-01 
5.736121e-01 
5.903139e-01 
6.079341e-01 
6.264077e-01 
6.456743e-01 
6.656776e-01 
6.863653e-01 
7.076886e-01 
7.296027e-01 
7.520658e-01 
7.750393e-01 
7.984873e-01 
8.223769e-01 
8.466783e-01 
8.713676e-01 
1.185027e+00 
1.157158e+00 
1.129414e+00 
1.101839e+00 
1.074447e+00 
1.047250e+00 
1.020261e+00 
9.934937e-01 
9.669618e-01 
9.406815e-01 
9.146703e-01 
8.889472e-01 
8.635326e-01 
8.384490e-01 
8.137210e-01 
7.893751e-01 
7.654403e-01 
7.419481e-01 
7.189328e-01 
6.964315e-01 
6.744846e-01 
6.531357e-01 
6.324319e-01 
6.124240e-01 
5.931668e-01 
5.747187e-01 
5.571430e-01 
5.405081e-01 
5.248851e-01 
5.103479e-01 
4.969724e-01 
4.848366e-01 
4.740179e-01 
4.645895e-01 
4.566197e-01 
4.501750e-01 
4.453188e-01 
4.421149e-01 
4.406577e-01 
4.418912e-01 
4.453238e-01 
4.506130e-01 
4.575947e-01 
4.661663e-01 
4.762400e-01 
4.877289e-01 
5.005456e-01 
5.146031e-01 
5.298162e-01 
5.461027e-01 
5.633843e-01 
5.815875e-01 
6.006437e-01 
6.204891e-01 
6.410649e-01 
6.623165e-01 
6.841935e-01 
7.066494e-01 
7.296417e-01 
7.531309e-01 
7.770808e-01 
8.014585e-01 
8.262336e-01 
8.513823e-01 
1.170101e+00 
1.141923e+00 
1.113861e+00 
1.085957e+00 
1.058224e+00 
1.030675e+00 
1.003321e+00 
9.761755e-01 
9.492521e-01 
9.225667e-01 
8.961363e-01 
8.699794e-01 
8.441164e-01 
8.185693e-01 
7.933625e-01 
7.685224e-01 
7.440781e-01 
7.200610e-01 
6.965059e-01 
6.734505e-01 
6.509359e-01 
6.290069e-01 
6.077124e-01 
5.871051e-01 
5.672422e-01 
5.481858e-01 
5.300029e-01 
5.127670e-01 
4.965548e-01 
4.814464e-01 
4.675257e-01 
4.548785e-01 
4.435912e-01 
4.337460e-01 
4.254204e-01 
4.186897e-01 
4.136246e-01 
4.102960e-01 
4.088107e-01 
4.101676e-01 
4.137991e-01 
4.193605e-01 
4.266869e-01 
4.356694e-01 
4.462106e-01 
4.582131e-01 
4.715795e-01 
4.862137e-01 
5.020221e-01 
5.189155e-01 
5.368094e-01 
5.556258e-01 
5.752919e-01 
5.957411e-01 
6.169115e-01 
6.387465e-01 
6.611941e-01 
6.842066e-01 
7.077404e-01 
7.317558e-01 
7.562163e-01 
7.810888e-01 
8.063430e-01 
8.319546e-01 
1.155773e+00 
1.127290e+00 
1.098915e+00 
1.070686e+00 
1.042617e+00 
1.014719e+00 
9.870028e-01 
9.594812e-01 
9.321679e-01 
9.050782e-01 
8.782286e-01 
8.516371e-01 
8.253236e-01 
7.993099e-01 
7.736199e-01 
7.482797e-01 
7.233179e-01 
6.987663e-01 
6.746596e-01 
6.510358e-01 
6.279367e-01 
6.054083e-01 
5.835005e-01 
5.622682e-01 
5.417712e-01 
5.220747e-01 
5.032499e-01 
4.853753e-01 
4.685336e-01 
4.528123e-01 
4.383033e-01 
4.251020e-01 
4.133047e-01 
4.030043e-01 
3.942893e-01 
3.872449e-01 
3.819510e-01 
3.784860e-01 
3.769714e-01 
3.784566e-01 
3.822998e-01 
3.881566e-01 
3.958596e-01 
4.052909e-01 
4.163412e-01 
4.289011e-01 
4.428612e-01 
4.581149e-01 
4.745595e-01 
4.920977e-01 
5.106394e-01 
5.301014e-01 
5.504071e-01 
5.714863e-01 
5.932747e-01 
6.157134e-01 
6.387490e-01 
6.623328e-01 
6.864207e-01 
7.109725e-01 
7.359516e-01 
7.613250e-01 
7.870625e-01 
8.131400e-01 
1.142063e+00 
1.113282e+00 
1.084599e+00 
1.056051e+00 
1.027650e+00 
9.994077e-01 
9.713335e-01 
9.434400e-01 
9.157403e-01 
8.882490e-01 
8.609820e-01 
8.339569e-01 
8.071927e-01 
7.807107e-01 
7.545342e-01 
7.286889e-01 
7.032033e-01 
6.781086e-01 
6.534395e-01 
6.292341e-01 
6.055347e-01 
5.823879e-01 
5.598448e-01 
5.379620e-01 
5.168017e-01 
4.964321e-01 
4.769288e-01 
4.583753e-01 
4.408608e-01 
4.244806e-01 
4.093358e-01 
3.955322e-01 
3.831781e-01 
3.723788e-01 
3.632356e-01 
3.558460e-01 
3.503003e-01 
3.466856e-01 
3.451402e-01 
3.467586e-01 
3.508287e-01 
3.570081e-01 
3.651243e-01 
3.750477e-01 
3.866546e-01 
3.998208e-01 
4.144235e-01 
4.303438e-01 
4.474689e-01 
4.656934e-01 
4.849209e-01 
5.050629e-01 
5.260385e-01 
5.477742e-01 
5.702031e-01 
5.932648e-01 
6.169046e-01 
6.410731e-01 
6.657259e-01 
6.908225e-01 
7.163267e-01 
7.422055e-01 
7.684293e-01 
7.949741e-01 
1.128990e+00 
1.099917e+00 
1.070934e+00 
1.042073e+00 
1.013348e+00 
9.847668e-01 
9.563408e-01 
9.280810e-01 
9.000001e-01 
8.721119e-01 
8.444315e-01 
8.169755e-01 
7.897625e-01 
7.628128e-01 
7.361489e-01 
7.097959e-01 
6.837816e-01 
6.581369e-01 
6.328962e-01 
6.080975e-01 
5.837831e-01 
5.599999e-01 
5.368001e-01 
5.142416e-01 
4.923886e-01 
4.713123e-01 
4.510922e-01 
4.318170e-01 
4.135827e-01 
3.964931e-01 
3.806595e-01 
3.661996e-01 
3.532352e-01 
3.418867e-01 
3.322707e-01 
3.244993e-01 
3.186751e-01 
3.148951e-01 
3.133173e-01 
3.150728e-01 
3.193886e-01 
3.259228e-01 
3.344946e-01 
3.449600e-01 
3.571775e-01 
3.710054e-01 
3.863049e-01 
4.029436e-01 
4.207975e-01 
4.397530e-01 
4.597064e-01 
4.805637e-01 
5.022397e-01 
5.246578e-01 
5.477492e-01 
5.714520e-01 
5.957108e-01 
6.204757e-01 
6.457022e-01 
6.713503e-01 
6.973839e-01 
7.237708e-01 
7.504818e-01 
7.774936e-01 
1.116574e+00 
1.087219e+00 
1.057943e+00 
1.028778e+00 
9.997355e-01 
9.708244e-01 
9.420544e-01 
9.134361e-01 
8.849812e-01 
8.567027e-01 
8.286148e-01 
8.007332e-01 
7.730754e-01 
7.456608e-01 
7.185109e-01 
6.916500e-01 
6.651050e-01 
6.389060e-01 
6.130868e-01 
5.876848e-01 
5.627423e-01 
5.383063e-01 
5.144293e-01 
4.911702e-01 
4.685950e-01 
4.467775e-01 
4.258008e-01 
4.057585e-01 
3.867539e-01 
3.688996e-01 
3.523182e-01 
3.371408e-01 
3.235050e-01 
3.115488e-01 
3.014077e-01 
2.932115e-01 
2.870775e-01 
2.831139e-01 
2.815020e-01 
2.833972e-01 
2.879825e-01 
2.949094e-01 
3.039869e-01 
3.150523e-01 
3.279424e-01 
3.424945e-01 
3.585515e-01 
3.759656e-01 
3.946011e-01 
4.143347e-01 
4.350555e-01 
4.566637e-01 
4.790705e-01 
5.021965e-01 
5.259712e-01 
5.503318e-01 
5.752225e-01 
6.005936e-01 
6.264008e-01 
6.526046e-01 
6.791700e-01 
7.060653e-01 
7.332625e-01 
7.607387e-01 
1.104841e+00 
1.075206e+00 
1.045646e+00 
1.016187e+00 
9.868370e-01 
9.576057e-01 
9.285014e-01 
8.995340e-01 
8.707144e-01 
8.420544e-01 
8.135671e-01 
7.852673e-01 
7.571711e-01 
7.292969e-01 
7.016650e-01 
6.742986e-01 
6.472235e-01 
6.204687e-01 
5.940669e-01 
5.680549e-01 
5.424740e-01 
5.173709e-01 
4.927981e-01 
4.688151e-01 
4.454891e-01 
4.228960e-01 
4.011221e-01 
3.802659e-01 
3.604375e-01 
3.417590e-01 
3.243649e-01 
3.084013e-01 
2.940239e-01 
2.813921e-01 
2.706645e-01 
2.619925e-01 
2.555118e-01 
2.513432e-01 
2.496948e-01 
2.517307e-01 
2.566138e-01 
2.639789e-01 
2.736216e-01 
2.853553e-01 
2.989898e-01 
3.143373e-01 
3.312194e-01 
3.494717e-01 
3.689453e-01 
3.895066e-01 
4.110370e-01 
4.334319e-01 
4.565990e-01 
4.804569e-01 
5.049339e-01 
5.299669e-01 
5.555001e-01 
5.814846e-01 
6.078768e-01 
6.346383e-01 
6.617350e-01 
6.891368e-01 
7.168165e-01 
7.447523e-01 
1.093745e+00 
1.063855e+00 
1.034025e+00 
1.004284e+00 
9.746406e-01 
9.451024e-01 
9.156773e-01 
8.863742e-01 
8.572029e-01 
8.281742e-01 
7.993000e-01 
7.705937e-01 
7.420702e-01 
7.137465e-01 
6.856416e-01 
6.577772e-01 
6.301777e-01 
6.028709e-01 
5.758879e-01 
5.492641e-01 
5.230399e-01 
4.972607e-01 
4.719784e-01 
4.472525e-01 
4.231504e-01 
3.997496e-01 
3.771392e-01 
3.554216e-01 
3.347138e-01 
3.151473e-01 
2.968689e-01 
2.800413e-01 
2.648414e-01 
2.514545e-01 
2.400680e-01 
2.308597e-01 
2.239883e-01 
2.195899e-01 
2.179028e-01 
2.200733e-01 
2.252876e-01 
2.331460e-01 
2.434255e-01 
2.559087e-01 
2.703716e-01 
2.865957e-01 
3.043789e-01 
3.235380e-01 
3.439094e-01 
3.653492e-01 
3.877322e-01 
4.109491e-01 
4.349048e-01 
4.595167e-01 
4.847127e-01 
5.104300e-01 
5.366139e-01 
5.632162e-01 
5.901950e-01 
6.175133e-01 
6.451386e-01 
6.730421e-01 
7.011984e-01 
7.295869e-01 
1.083448e+00 
1.053304e+00 
1.023213e+00 
9.932011e-01 
9.632745e-01 
9.334400e-01 
9.037050e-01 
8.740772e-01 
8.445652e-01 
8.151786e-01 
7.859279e-01 
7.568252e-01 
7.278838e-01 
6.991193e-01 
6.705491e-01 
6.421934e-01 
6.140747e-01 
5.862190e-01 
5.586559e-01 
5.314188e-01 
5.045461e-01 
4.780817e-01 
4.520762e-01 
4.265877e-01 
4.016836e-01 
3.774417e-01 
3.539528e-01 
3.313228e-01 
3.096746e-01 
2.891484e-01 
2.699037e-01 
2.521211e-01 
2.360026e-01 
2.217658e-01 
2.096332e-01 
1.998150e-01 
1.925006e-01 
1.878438e-01 
1.861167e-01 
1.884305e-01 
1.940219e-01 
2.024421e-01 
2.134465e-01 
2.267771e-01 
2.421663e-01 
2.593595e-01 
2.781269e-01 
2.982645e-01 
3.195944e-01 
3.419632e-01 
3.652393e-01 
3.893100e-01 
4.140786e-01 
4.394619e-01 
4.653885e-01 
4.917970e-01 
5.186342e-01 
5.458539e-01 
5.734161e-01 
6.012858e-01 
6.294323e-01 
6.578289e-01 
6.864520e-01 
7.152824e-01 
1.073922e+00 
1.043540e+00 
1.013203e+00 
9.829323e-01 
9.527361e-01 
9.226197e-01 
8.925891e-01 
8.626512e-01 
8.328132e-01 
8.030833e-01 
7.734707e-01 
7.439858e-01 
7.146405e-01 
6.854487e-01 
6.564261e-01 
6.275908e-01 
5.989637e-01 
5.705685e-01 
5.424324e-01 
5.145867e-01 
4.870671e-01 
4.599153e-01 
4.331794e-01 
4.069155e-01 
3.811894e-01 
3.560786e-01 
3.316743e-01 
3.080843e-01 
2.854357e-01 
2.638758e-01 
2.435757e-01 
2.247349e-01 
2.075847e-01 
1.923828e-01 
1.793965e-01 
1.688755e-01 
1.610526e-01 
1.561025e-01 
1.543324e-01 
1.567920e-01 
1.628137e-01 
1.718785e-01 
1.837156e-01 
1.980113e-01 
2.144422e-01 
2.327104e-01 
2.525543e-01 
2.737481e-01 
2.960997e-01 
3.194474e-01 
3.436546e-01 
3.686067e-01 
3.942070e-01 
4.203735e-01 
4.470368e-01 
4.741377e-01 
5.016255e-01 
5.294568e-01 
5.575940e-01 
5.860048e-01 
6.146609e-01 
6.435378e-01 
6.726139e-01 
7.018720e-01 
1.065172e+00 
1.034566e+00 
1.003997e+00 
9.734843e-01 
9.430349e-01 
9.126534e-01 
8.823448e-01 
8.521145e-01 
8.219686e-01 
7.919138e-01 
7.619578e-01 
7.321093e-01 
7.023787e-01 
6.727780e-01 
6.433211e-01 
6.140240e-01 
5.849053e-01 
5.559862e-01 
5.272913e-01 
4.988488e-01 
4.706915e-01 
4.428577e-01 
4.153921e-01 
3.883478e-01 
3.617880e-01 
3.357878e-01 
3.104376e-01 
2.858450e-01 
2.621378e-01 
2.394675e-01 
2.180146e-01 
1.979985e-01 
1.796844e-01 
1.633794e-01 
1.494077e-01 
1.380681e-01 
1.296562e-01 
1.243720e-01 
1.225565e-01 
1.251626e-01 
1.316826e-01 
1.414958e-01 
1.543010e-01 
1.697062e-01 
1.873162e-01 
2.067808e-01 
2.278029e-01 
2.501343e-01 
2.735706e-01 
2.979434e-01 
3.231144e-01 
3.489694e-01 
3.754137e-01 
4.023685e-01 
4.297677e-01 
4.575555e-01 
4.856850e-01 
5.141162e-01 
5.428147e-01 
5.717512e-01 
6.009004e-01 
6.302402e-01 
6.597517e-01 
6.894194e-01 
1.057224e+00 
1.026410e+00 
9.956248e-01 
9.648874e-01 
9.342027e-01 
9.035747e-01 
8.730071e-01 
8.425043e-01 
8.120709e-01 
7.817121e-01 
7.514340e-01 
7.212439e-01 
6.911503e-01 
6.611632e-01 
6.312947e-01 
6.015585e-01 
5.719706e-01 
5.425496e-01 
5.133168e-01 
4.842970e-01 
4.555192e-01 
4.270175e-01 
3.988325e-01 
3.710128e-01 
3.436175e-01 
3.167181e-01 
2.904013e-01 
2.647712e-01 
2.399522e-01 
2.160946e-01 
1.933852e-01 
1.720623e-01 
1.524291e-01 
1.348517e-01 
1.197300e-01 
1.074236e-01 
9.832142e-02 
9.265310e-02 
9.078929e-02 
9.354197e-02 
1.006481e-01 
1.113409e-01 
1.252877e-01 
1.419821e-01 
1.609342e-01 
1.817309e-01 
2.040378e-01 
2.275869e-01 
2.521650e-01 
2.776017e-01 
3.037602e-01 
3.305300e-01 
3.578212e-01 
3.855600e-01 
4.136853e-01 
4.421465e-01 
4.709012e-01 
4.999135e-01 
5.291533e-01 
5.585946e-01 
5.882153e-01 
6.179963e-01 
6.479212e-01 
6.779768e-01 
1.050102e+00 
1.019097e+00 
9.881137e-01 
9.571696e-01 
9.262690e-01 
8.954146e-01 
8.646093e-01 
8.338560e-01 
8.031579e-01 
7.725189e-01 
7.419434e-01 
7.114371e-01 
6.810068e-01 
6.506606e-01 
6.204083e-01 
5.902614e-01 
5.602333e-01 
5.303393e-01 
5.005974e-01 
4.710285e-01 
4.416571e-01 
4.125125e-01 
3.836300e-01 
3.550529e-01 
3.268345e-01 
2.990403e-01 
2.717505e-01 
2.450606e-01 
2.190860e-01 
1.939696e-01 
1.698988e-01 
1.471264e-01 
1.259916e-01 
1.069300e-01 
9.045020e-02 
7.698527e-02 
6.706205e-02 
6.094683e-02 
5.903089e-02 
6.192805e-02 
6.973742e-02 
8.147888e-02 
9.679693e-02 
1.150070e-01 
1.354923e-01 
1.577686e-01 
1.814671e-01 
2.063071e-01 
2.320734e-01 
2.585995e-01 
2.857555e-01 
3.134384e-01 
3.415662e-01 
3.700724e-01 
3.989030e-01 
4.280138e-01 
4.573678e-01 
4.869345e-01 
5.166879e-01 
5.466064e-01 
5.766712e-01 
6.068663e-01 
6.371782e-01 
6.675953e-01 
1.043836e+00 
1.012658e+00 
9.814945e-01 
9.503631e-01 
9.192669e-01 
8.882078e-01 
8.571875e-01 
8.262076e-01 
7.952700e-01 
7.643771e-01 
7.335320e-01 
7.027384e-01 
6.720016e-01 
6.413279e-01 
6.107248e-01 