# vtk DataFile Version 2.0 
Quadtree Mesh 
ASCII 
DATASET UNSTRUCTURED_GRID 
POINTS 4096 double 
-1.000000e+00 -1.000000e+00 0.000000e+00
-9.682540e-01 -1.000000e+00 0.000000e+00
-9.365079e-01 -1.000000e+00 0.000000e+00
-9.047619e-01 -1.000000e+00 0.000000e+00
-8.730159e-01 -1.000000e+00 0.000000e+00
-8.412698e-01 -1.000000e+00 0.000000e+00
-8.095238e-01 -1.000000e+00 0.000000e+00
-7.777778e-01 -1.000000e+00 0.000000e+00
-7.460317e-01 -1.000000e+00 0.000000e+00
-7.142857e-01 -1.000000e+00 0.000000e+00
-6.825397e-01 -1.000000e+00 0.000000e+00
-6.507937e-01 -1.000000e+00 0.000000e+00
-6.190476e-01 -1.000000e+00 0.000000e+00
-5.873016e-01 -1.000000e+00 0.000000e+00
-5.555556e-01 -1.000000e+00 0.000000e+00
-5.238095e-01 -1.000000e+00 0.000000e+00
-4.920635e-01 -1.000000e+00 0.000000e+00
-4.603175e-01 -1.000000e+00 0.000000e+00
-4.285714e-01 -1.000000e+00 0.000000e+00
-3.968254e-01 -1.000000e+00 0.000000e+00
-3.650794e-01 -1.000000e+00 0.000000e+00
-3.333333e-01 -1.000000e+00 0.000000e+00
-3.015873e-01 -1.000000e+00 0.000000e+00
-2.698413e-01 -1.000000e+00 0.000000e+00
-2.380952e-01 -1.000000e+00 0.000000e+00
-2.063492e-01 -1.000000e+00 0.000000e+00
-1.746032e-01 -1.000000e+00 0.000000e+00
-1.428571e-01 -1.000000e+00 0.000000e+00
-1.111111e-01 -1.000000e+00 0.000000e+00
-7.936508e-02 -1.000000e+00 0.000000e+00
-4.761905e-02 -1.000000e+00 0.000000e+00
-1.587302e-02 -1.000000e+00 0.000000e+00
1.587302e-02 -1.000000e+00 0.000000e+00
4.761905e-02 -1.000000e+00 0.000000e+00
7.936508e-02 -1.000000e+00 0.000000e+00
1.111111e-01 -1.000000e+00 0.000000e+00
1.428571e-01 -1.000000e+00 0.000000e+00
1.746032e-01 -1.000000e+00 0.000000e+00
2.063492e-01 -1.000000e+00 0.000000e+00
2.380952e-01 -1.000000e+00 0.000000e+00
2.698413e-01 -1.000000e+00 0.000000e+00
3.015873e-01 -1.000000e+00 0.000000e+00
3.333333e-01 -1.000000e+00 0.000000e+00
3.650794e-01 -1.000000e+00 0.000000e+00
3.968254e-01 -1.000000e+00 0.000000e+00
4.285714e-01 -1.000000e+00 0.000000e+00
4.603175e-01 -1.000000e+00 0.000000e+00
4.920635e-01 -1.000000e+00 0.000000e+00
5.238095e-01 -1.000000e+00 0.000000e+00
5.555556e-01 -1.000000e+00 0.000000e+00
5.873016e-01 -1.000000e+00 0.000000e+00
6.190476e-01 -1.000000e+00 0.000000e+00
6.507937e-01 -1.000000e+00 0.000000e+00
6.825397e-01 -1.000000e+00 0.000000e+00
7.142857e-01 -1.000000e+00 0.000000e+00
7.460317e-01 -1.000000e+00 0.000000e+00
7.777778e-01 -1.000000e+00 0.000000e+00
8.095238e-01 -1.000000e+00 0.000000e+00
8.412698e-01 -1.000000e+00 0.000000e+00
8.730159e-01 -1.000000e+00 0.000000e+00
9.047619e-01 -1.000000e+00 0.000000e+00
9.365079e-01 -1.000000e+00 0.000000e+00
9.682540e-01 -1.000000e+00 0.000000e+00
1.000000e+00 -1.000000e+00 0.000000e+00
-1.000000e+00 -9.682540e-01 0.000000e+00
-9.682540e-01 -9.682540e-01 0.000000e+00
-9.365079e-01 -9.682540e-01 0.000000e+00
-9.047619e-01 -9.682540e-01 0.000000e+00
-8.730159e-01 -9.682540e-01 0.000000e+00
-8.412698e-01 -9.682540e-01 0.000000e+00
-8.095238e-01 -9.682540e-01 0.000000e+00
-7.777778e-01 -9.682540e-01 0.000000e+00
-7.460317e-01 -9.682540e-01 0.000000e+00
-7.142857e-01 -9.682540e-01 0.000000e+00
-6.825397e-01 -9.682540e-01 0.000000e+00
-6.507937e-01 -9.682540e-01 0.000000e+00
-6.190476e-01 -9.682540e-01 0.000000e+00
-5.873016e-01 -9.682540e-01 0.000000e+00
-5.555556e-01 -9.682540e-01 0.000000e+00
-5.238095e-01 -9.682540e-01 0.000000e+00
-4.920635e-01 -9.682540e-01 0.000000e+00
-4.603175e-01 -9.682540e-01 0.000000e+00
-4.285714e-01 -9.682540e-01 0.000000e+00
-3.968254e-01 -9.682540e-01 0.000000e+00
-3.650794e-01 -9.682540e-01 0.000000e+00
-3.333333e-01 -9.682540e-01 0.000000e+00
-3.015873e-01 -9.682540e-01 0.000000e+00
-2.698413e-01 -9.682540e-01 0.000000e+00
-2.380952e-01 -9.682540e-01 0.000000e+00
-2.063492e-01 -9.682540e-01 0.000000e+00
-1.746032e-01 -9.682540e-01 0.000000e+00
-1.428571e-01 -9.682540e-01 0.000000e+00
-1.111111e-01 -9.682540e-01 0.000000e+00
-7.936508e-02 -9.682540e-01 0.000000e+00
-4.761905e-02 -9.682540e-01 0.000000e+00
-1.587302e-02 -9.682540e-01 0.000000e+00
1.587302e-02 -9.682540e-01 0.000000e+00
4.761905e-02 -9.682540e-01 0.000000e+00
7.936508e-02 -9.682540e-01 0.000000e+00
1.111111e-01 -9.682540e-01 0.000000e+00
1.428571e-01 -9.682540e-01 0.000000e+00
1.746032e-01 -9.682540e-01 0.000000e+00
2.063492e-01 -9.682540e-01 0.000000e+00
2.380952e-01 -9.682540e-01 0.000000e+00
2.698413e-01 -9.682540e-01 0.000000e+00
3.015873e-01 -9.682540e-01 0.000000e+00
3.333333e-01 -9.682540e-01 0.000000e+00
3.650794e-01 -9.682540e-01 0.000000e+00
3.968254e-01 -9.682540e-01 0.000000e+00
4.285714e-01 -9.682540e-01 0.000000e+00
4.603175e-01 -9.682540e-01 0.000000e+00
4.920635e-01 -9.682540e-01 0.000000e+00
5.238095e-01 -9.682540e-01 0.000000e+00
5.555556e-01 -9.682540e-01 0.000000e+00
5.873016e-01 -9.682540e-01 0.000000e+00
6.190476e-01 -9.682540e-01 0.000000e+00
6.507937e-01 -9.682540e-01 0.000000e+00
6.825397e-01 -9.682540e-01 0.000000e+00
7.142857e-01 -9.682540e-01 0.000000e+00
7.460317e-01 -9.682540e-01 0.000000e+00
7.777778e-01 -9.682540e-01 0.000000e+00
8.095238e-01 -9.682540e-01 0.000000e+00
8.412698e-01 -9.682540e-01 0.000000e+00
8.730159e-01 -9.682540e-01 0.000000e+00
9.047619e-01 -9.682540e-01 0.000000e+00
9.365079e-01 -9.682540e-01 0.000000e+00
9.682540e-01 -9.682540e-01 0.000000e+00
1.000000e+00 -9.682540e-01 0.000000e+00
-1.000000e+00 -9.365079e-01 0.000000e+00
-9.682540e-01 -9.365079e-01 0.000000e+00
-9.365079e-01 -9.365079e-01 0.000000e+00
-9.047619e-01 -9.365079e-01 0.000000e+00
-8.730159e-01 -9.365079e-01 0.000000e+00
-8.412698e-01 -9.365079e-01 0.000000e+00
-8.095238e-01 -9.365079e-01 0.000000e+00
-7.777778e-01 -9.365079e-01 0.000000e+00
-7.460317e-01 -9.365079e-01 0.000000e+00
-7.142857e-01 -9.365079e-01 0.000000e+00
-6.825397e-01 -9.365079e-01 0.000000e+00
-6.507937e-01 -9.365079e-01 0.000000e+00
-6.190476e-01 -9.365079e-01 0.000000e+00
-5.873016e-01 -9.365079e-01 0.000000e+00
-5.555556e-01 -9.365079e-01 0.000000e+00
-5.238095e-01 -9.365079e-01 0.000000e+00
-4.920635e-01 -9.365079e-01 0.000000e+00
-4.603175e-01 -9.365079e-01 0.000000e+00
-4.285714e-01 -9.365079e-01 0.000000e+00
-3.968254e-01 -9.365079e-01 0.000000e+00
-3.650794e-01 -9.365079e-01 0.000000e+00
-3.333333e-01 -9.365079e-01 0.000000e+00
-3.015873e-01 -9.365079e-01 0.000000e+00
-2.698413e-01 -9.365079e-01 0.000000e+00
-2.380952e-01 -9.365079e-01 0.000000e+00
-2.063492e-01 -9.365079e-01 0.000000e+00
-1.746032e-01 -9.365079e-01 0.000000e+00
-1.428571e-01 -9.365079e-01 0.000000e+00
-1.111111e-01 -9.365079e-01 0.000000e+00
-7.936508e-02 -9.365079e-01 0.000000e+00
-4.761905e-02 -9.365079e-01 0.000000e+00
-1.587302e-02 -9.365079e-01 0.000000e+00
1.587302e-02 -9.365079e-01 0.000000e+00
4.761905e-02 -9.365079e-01 0.000000e+00
7.936508e-02 -9.365079e-01 0.000000e+00
1.111111e-01 -9.365079e-01 0.000000e+00
1.428571e-01 -9.365079e-01 0.000000e+00
1.746032e-01 -9.365079e-01 0.000000e+00
2.063492e-01 -9.365079e-01 0.000000e+00
2.380952e-01 -9.365079e-01 0.000000e+00
2.698413e-01 -9.365079e-01 0.000000e+00
3.015873e-01 -9.365079e-01 0.000000e+00
3.333333e-01 -9.365079e-01 0.000000e+00
3.650794e-01 -9.365079e-01 0.000000e+00
3.968254e-01 -9.365079e-01 0.000000e+00
4.285714e-01 -9.365079e-01 0.000000e+00
4.603175e-01 -9.365079e-01 0.000000e+00
4.920635e-01 -9.365079e-01 0.000000e+00
5.238095e-01 -9.365079e-01 0.000000e+00
5.555556e-01 -9.365079e-01 0.000000e+00
5.873016e-01 -9.365079e-01 0.000000e+00
6.190476e-01 -9.365079e-01 0.000000e+00
6.507937e-01 -9.365079e-01 0.000000e+00
6.825397e-01 -9.365079e-01 0.000000e+00
7.142857e-01 -9.365079e-01 0.000000e+00
7.460317e-01 -9.365079e-01 0.000000e+00
7.777778e-01 -9.365079e-01 0.000000e+00
8.095238e-01 -9.365079e-01 0.000000e+00
8.412698e-01 -9.365079e-01 0.000000e+00
8.730159e-01 -9.365079e-01 0.000000e+00
9.047619e-01 -9.365079e-01 0.000000e+00
9.365079e-01 -9.365079e-01 0.000000e+00
9.682540e-01 -9.365079e-01 0.000000e+00
1.000000e+00 -9.365079e-01 0.000000e+00
-1.000000e+00 -9.047619e-01 0.000000e+00
-9.682540e-01 -9.047619e-01 0.000000e+00
-9.365079e-01 -9.047619e-01 0.000000e+00
-9.047619e-01 -9.047619e-01 0.000000e+00
-8.730159e-01 -9.047619e-01 0.000000e+00
-8.412698e-01 -9.047619e-01 0.000000e+00
-8.095238e-01 -9.047619e-01 0.000000e+00
-7.777778e-01 -9.047619e-01 0.000000e+00
-7.460317e-01 -9.047619e-01 0.000000e+00
-7.142857e-01 -9.047619e-01 0.000000e+00
-6.825397e-01 -9.047619e-01 0.000000e+00
-6.507937e-01 -9.047619e-01 0.000000e+00
-6.190476e-01 -9.047619e-01 0.000000e+00
-5.873016e-01 -9.047619e-01 0.000000e+00
-5.555556e-01 -9.047619e-01 0.000000e+00
-5.238095e-01 -9.047619e-01 0.000000e+00
-4.920635e-01 -9.047619e-01 0.000000e+00
-4.603175e-01 -9.047619e-01 0.000000e+00
-4.285714e-01 -9.047619e-01 0.000000e+00
-3.968254e-01 -9.047619e-01 0.000000e+00
-3.650794e-01 -9.047619e-01 0.000000e+00
-3.333333e-01 -9.047619e-01 0.000000e+00
-3.015873e-01 -9.047619e-01 0.000000e+00
-2.698413e-01 -9.047619e-01 0.000000e+00
-2.380952e-01 -9.047619e-01 0.000000e+00
-2.063492e-01 -9.047619e-01 0.000000e+00
-1.746032e-01 -9.047619e-01 0.000000e+00
-1.428571e-01 -9.047619e-01 0.000000e+00
-1.111111e-01 -9.047619e-01 0.000000e+00
-7.936508e-02 -9.047619e-01 0.000000e+00
-4.761905e-02 -9.047619e-01 0.000000e+00
-1.587302e-02 -9.047619e-01 0.000000e+00
1.587302e-02 -9.047619e-01 0.000000e+00
4.761905e-02 -9.047619e-01 0.000000e+00
7.936508e-02 -9.047619e-01 0.000000e+00
1.111111e-01 -9.047619e-01 0.000000e+00
1.428571e-01 -9.047619e-01 0.000000e+00
1.746032e-01 -9.047619e-01 0.000000e+00
2.063492e-01 -9.047619e-01 0.000000e+00
2.380952e-01 -9.047619e-01 0.000000e+00
2.698413e-01 -9.047619e-01 0.000000e+00
3.015873e-01 -9.047619e-01 0.000000e+00
3.333333e-01 -9.047619e-01 0.000000e+00
3.650794e-01 -9.047619e-01 0.000000e+00
3.968254e-01 -9.047619e-01 0.000000e+00
4.285714e-01 -9.047619e-01 0.000000e+00
4.603175e-01 -9.047619e-01 0.000000e+00
4.920635e-01 -9.047619e-01 0.000000e+00
5.238095e-01 -9.047619e-01 0.000000e+00
5.555556e-01 -9.047619e-01 0.000000e+00
5.873016e-01 -9.047619e-01 0.000000e+00
6.190476e-01 -9.047619e-01 0.000000e+00
[...]
POINT_DATA 4096 
SCALARS concentration double 1 
LOOKUP_TABLE default 
1.458703e+00 
1.438082e+00 
1.417801e+00 
1.397873e+00 
1.378310e+00 
1.359129e+00 
1.340343e+00 
1.321968e+00 
1.304020e+00 
1.286514e+00 
1.269467e+00 
1.252897e+00 
1.236820e+00 
1.221254e+00 
1.206219e+00 
1.191733e+00 
1.177814e+00 
1.164484e+00 
1.151763e+00 
1.139671e+00 
1.128230e+00 
1.117462e+00 
1.107384e+00 
1.098014e+00 
1.089368e+00 
1.081465e+00 
1.074321e+00 
1.067956e+00 
1.062386e+00 
1.057626e+00 
1.053693e+00 
1.050599e+00 
1.048358e+00 
1.046983e+00 
1.046500e+00 
1.047202e+00 
1.049125e+00 
1.052177e+00 
1.056250e+00 
1.061260e+00 
1.067149e+00 
1.073876e+00 
1.081412e+00 
1.089729e+00 
1.098807e+00 
1.108622e+00 
1.119155e+00 
1.130385e+00 
1.142292e+00 
1.154854e+00 
1.168052e+00 
1.181866e+00 
1.196275e+00 
1.211260e+00 
1.226801e+00 
1.242878e+00 
1.259472e+00 
1.276564e+00 
1.294135e+00 
1.312168e+00 
1.330647e+00 
1.349556e+00 
1.368880e+00 
1.388602e+00 
1.434598e+00 
1.413681e+00 
1.393104e+00 
1.372876e+00 
1.353013e+00 
1.333529e+00 
1.314439e+00 
1.295759e+00 
1.277506e+00 
1.259695e+00 
1.242344e+00 
1.225471e+00 
1.209094e+00 
1.193231e+00 
1.177901e+00 
1.163125e+00 
1.148922e+00 
1.135313e+00 
1.122319e+00 
1.109962e+00 
1.098266e+00 
1.087252e+00 
1.076940e+00 
1.067350e+00 
1.058499e+00 
1.050406e+00 
1.043090e+00 
1.036570e+00 
1.030864e+00 
1.025989e+00 
1.021961e+00 
1.018796e+00 
1.016508e+00 
1.015110e+00 
1.014635e+00 
1.015402e+00 
1.017428e+00 
1.020602e+00 
1.024810e+00 
1.029967e+00 
1.036017e+00 
1.042920e+00 
1.050646e+00 
1.059169e+00 
1.068465e+00 
1.078512e+00 
1.089289e+00 
1.100773e+00 
1.112944e+00 
1.125779e+00 
1.139257e+00 
1.153357e+00 
1.168059e+00 
1.183340e+00 
1.199182e+00 
1.215563e+00 
1.232463e+00 
1.249861e+00 
1.267739e+00 
1.286081e+00 
1.304868e+00 
1.324085e+00 
1.343716e+00 
1.363744e+00 
1.410751e+00 
1.389533e+00 
1.368654e+00 
1.348122e+00 
1.327951e+00 
1.308158e+00 
1.288757e+00 
1.269765e+00 
1.251199e+00 
1.233076e+00 
1.215412e+00 
1.198228e+00 
1.181541e+00 
1.165371e+00 
1.149737e+00 
1.134661e+00 
1.120163e+00 
1.106265e+00 
1.092989e+00 
1.080358e+00 
1.068395e+00 
1.057124e+00 
1.046569e+00 
1.036748e+00 
1.027683e+00 
1.019391e+00 
1.011894e+00 
1.005211e+00 
9.993627e-01 
9.943667e-01 
9.902406e-01 
9.870004e-01 
9.846621e-01 
9.832408e-01 
9.827742e-01 
9.836120e-01 
9.857447e-01 
9.890437e-01 
9.933892e-01 
9.986977e-01 
1.004914e+00 
1.011999e+00 
1.019922e+00 
1.028658e+00 
1.038182e+00 
1.048469e+00 
1.059499e+00 
1.071246e+00 
1.083690e+00 
1.096807e+00 
1.110574e+00 
1.124970e+00 
1.139972e+00 
1.155558e+00 
1.171709e+00 
1.188400e+00 
1.205612e+00 
1.223323e+00 
1.241516e+00 
1.260171e+00 
1.279272e+00 
1.298802e+00 
1.318743e+00 
1.339080e+00 
1.387173e+00 
1.365650e+00 
1.344462e+00 
1.323620e+00 
1.303136e+00 
1.283027e+00 
1.263308e+00 
1.243997e+00 
1.225110e+00 
1.206666e+00 
1.188681e+00 
1.171177e+00 
1.154171e+00 
1.137684e+00 
1.121737e+00 
1.106350e+00 
1.091547e+00 
1.077349e+00 
1.063780e+00 
1.050863e+00 
1.038623e+00 
1.027086e+00 
1.016275e+00 
1.006214e+00 
9.969232e-01 
9.884235e-01 
9.807362e-01 
9.738829e-01 
9.678845e-01 
9.627610e-01 
9.585311e-01 
9.552123e-01 
9.528216e-01 
9.513757e-01 
9.509200e-01 
9.518327e-01 
9.540764e-01 
9.575033e-01 
9.619901e-01 
9.674547e-01 
9.738435e-01 
9.811181e-01 
9.892479e-01 
9.982058e-01 
1.007966e+00 
1.018505e+00 
1.029797e+00 
1.041819e+00 
1.054547e+00 
1.067956e+00 
1.082023e+00 
1.096725e+00 
1.112038e+00 
1.127940e+00 
1.144408e+00 
1.161420e+00 
1.178953e+00 
1.196986e+00 
1.215501e+00 
1.234478e+00 
1.253900e+00 
1.273748e+00 
1.294006e+00 
1.314658e+00 
1.363876e+00 
1.342042e+00 
1.320541e+00 
1.299383e+00 
1.278580e+00 
1.258149e+00 
1.238105e+00 
1.218467e+00 
1.199251e+00 
1.180477e+00 
1.162163e+00 
1.144329e+00 
1.126994e+00 
1.110180e+00 
1.093909e+00 
1.078202e+00 
1.063082e+00 
1.048573e+00 
1.034700e+00 
1.021486e+00 
1.008957e+00 
9.971415e-01 
9.860647e-01 
9.757513e-01 
9.662243e-01 
9.575060e-01 
9.496189e-01 
9.425861e-01 
9.364301e-01 
9.311723e-01 
9.268332e-01 
9.234315e-01 
9.209857e-01 
9.195144e-01 
9.190718e-01 
9.200651e-01 
9.224235e-01 
9.259814e-01 
9.306135e-01 
9.362399e-01 
9.428084e-01 
9.502809e-01 
9.586261e-01 
9.678161e-01 
9.778242e-01 
9.886245e-01 
1.000191e+00 
1.012499e+00 
1.025522e+00 
1.039235e+00 
1.053614e+00 
1.068633e+00 
1.084268e+00 
1.100496e+00 
1.117293e+00 
1.134635e+00 
1.152498e+00 
1.170863e+00 
1.189709e+00 
1.209016e+00 
1.228766e+00 
1.248940e+00 
1.269522e+00 
1.290495e+00 
1.340872e+00 
1.318722e+00 
1.296903e+00 
1.275422e+00 
1.254294e+00 
1.233534e+00 
1.213159e+00 
1.193186e+00 
1.173634e+00 
1.154521e+00 
1.135868e+00 
1.117695e+00 
1.100022e+00 
1.082870e+00 
1.066264e+00 
1.050225e+00 
1.034777e+00 
1.019945e+00 
1.005755e+00 
9.922323e-01 
9.794037e-01 
9.672974e-01 
9.559418e-01 
9.453642e-01 
9.355894e-01 
9.266412e-01 
9.185439e-01 
9.113221e-01 
9.049998e-01 
8.996005e-01 
8.951460e-01 
8.916569e-01 
8.891532e-01 
8.876553e-01 
8.872289e-01 
8.883091e-01 
8.907865e-01 
8.944785e-01 
8.992607e-01 
9.050554e-01 
9.118114e-01 
9.194907e-01 
9.280614e-01 
9.374942e-01 
9.477612e-01 
9.588349e-01 
9.706881e-01 
9.832936e-01 
9.966245e-01 
1.010654e+00 
1.025356e+00 
1.040704e+00 
1.056673e+00 
1.073237e+00 
1.090373e+00 
1.108055e+00 
1.126260e+00 
1.144965e+00 
1.164150e+00 
1.183796e+00 
1.203882e+00 
1.224390e+00 
1.245303e+00 
1.266604e+00 
1.318174e+00 
1.295705e+00 
1.273561e+00 
1.251753e+00 
1.230294e+00 
1.209198e+00 
1.188484e+00 
1.168169e+00 
1.148272e+00 
1.128813e+00 
1.109811e+00 
1.091288e+00 
1.073266e+00 
1.055766e+00 
1.038813e+00 
1.022430e+00 
1.006642e+00 
9.914747e-01 
9.769551e-01 
9.631103e-01 
9.499685e-01 
9.375589e-01 
9.259119e-01 
9.150572e-01 
9.050217e-01 
8.958315e-01 
8.875126e-01 
8.800913e-01 
8.735936e-01 
8.680446e-01 
8.634683e-01 
8.598869e-01 
8.573222e-01 
8.557966e-01 
8.553900e-01 
8.565651e-01 
8.591657e-01 
8.629957e-01 
8.679335e-01 
8.739037e-01 
8.808559e-01 
8.887520e-01 
8.975588e-01 
9.072460e-01 
9.177839e-01 
9.291434e-01 
9.412956e-01 
9.542116e-01 
9.678629e-01 
9.822211e-01 
9.972585e-01 
1.012948e+00 
1.029262e+00 
1.046174e+00 
1.063660e+00 
1.081693e+00 
1.100248e+00 
1.119303e+00 
1.138838e+00 
1.158830e+00 
1.179260e+00 
1.200109e+00 
1.221359e+00 
1.242993e+00 
1.295815e+00 
1.273021e+00 
1.250547e+00 
1.228404e+00 
1.206606e+00 
1.185167e+00 
1.164106e+00 
1.143440e+00 
1.123188e+00 
1.103372e+00 
1.084012e+00 
1.065129e+00 
1.046746e+00 
1.028886e+00 
1.011573e+00 
9.948328e-01 
9.786911e-01 
9.631749e-01 
9.483122e-01 
9.341315e-01 
9.206627e-01 
9.079365e-01 
8.959843e-01 
8.848385e-01 
8.745288e-01 
8.650836e-01 
8.565309e-01 
8.488992e-01 
8.422161e-01 
8.365091e-01 
8.318039e-01 
8.281251e-01 
8.254961e-01 
8.239415e-01 
8.235580e-01 
8.248335e-01 
8.275602e-01 
8.315322e-01 
8.366318e-01 
8.427856e-01 
8.499438e-01 
8.580674e-01 
8.671224e-01 
8.770765e-01 
8.878985e-01 
8.995574e-01 
9.120224e-01 
9.252628e-01 
9.392483e-01 
9.539489e-01 
9.693351e-01 
9.853782e-01 
1.002050e+00 
1.019323e+00 
1.037170e+00 
1.055564e+00 
1.074481e+00 
1.093896e+00 
1.113788e+00 
1.134135e+00 
1.154917e+00 
1.176115e+00 
1.197709e+00 
1.219683e+00 
1.273813e+00 
1.250686e+00 
1.227876e+00 
1.205391e+00 
1.183245e+00 
1.161456e+00 
1.140039e+00 
1.119014e+00 
1.098399e+00 
1.078217e+00 
1.058487e+00 
1.039234e+00 
1.020479e+00 
1.002247e+00 
9.845625e-01 
9.674526e-01 
9.509443e-01 
9.350656e-01 
9.198460e-01 
9.053156e-01 
8.915056e-01 
8.784483e-01 
8.661770e-01 
8.547257e-01 
8.441278e-01 
8.344143e-01 
8.256155e-01 
8.177616e-01 
8.108827e-01 
8.050083e-01 
8.001668e-01 
7.963846e-01 
7.936873e-01 
7.921019e-01 
7.917420e-01 
7.931146e-01 
7.959657e-01 
8.000834e-01 
8.053515e-01 
8.116980e-01 
8.190730e-01 
8.274365e-01 
8.367529e-01 
8.469883e-01 
8.581094e-01 
8.700831e-01 
8.828765e-01 
8.964571e-01 
9.107926e-01 
9.258512e-01 
9.416017e-01 
9.580138e-01 
9.750580e-01 
9.927053e-01 
1.010927e+00 
1.029696e+00 
1.048986e+00 
1.068773e+00 
1.089034e+00 
1.109747e+00 
1.130891e+00 
1.152446e+00 
1.174394e+00 
1.196716e+00 
1.252139e+00 
1.228674e+00 
1.205523e+00 
1.182692e+00 
1.160196e+00 
1.138050e+00 
1.116273e+00 
1.094882e+00 
1.073897e+00 
1.053340e+00 
1.033234e+00 
1.013600e+00 
9.944627e-01 
9.758476e-01 
9.577803e-01 
9.402883e-01 
9.233999e-01 
9.071447e-01 
8.915535e-01 
8.766581e-01 
8.624914e-01 
8.490874e-01 
8.364813e-01 
8.247091e-01 
8.138073e-01 
8.038100e-01 
7.947503e-01 
7.866608e-01 
7.795739e-01 
7.735215e-01 
7.685347e-01 
7.646426e-01 
7.618730e-01 
7.602556e-01 
7.599266e-01 
7.614090e-01 
7.643906e-01 
7.686612e-01 
7.741068e-01 
7.806565e-01 
7.882602e-01 
7.968769e-01 
8.064691e-01 
8.170008e-01 
8.284365e-01 
8.407408e-01 
8.538787e-01 
8.678154e-01 
8.825165e-01 
8.979485e-01 
9.140783e-01 
9.308741e-01 
9.483047e-01 
9.663399e-01 
9.849493e-01 
1.004105e+00 
1.023780e+00 
1.043950e+00 
1.064591e+00 
1.085680e+00 
1.107197e+00 
1.129120e+00 
1.151429e+00 
1.174108e+00 
1.230829e+00 
1.207026e+00 
1.183530e+00 
1.160348e+00 
1.137494e+00 
1.114986e+00 
1.092841e+00 
1.071077e+00 
1.049714e+00 
1.028774e+00 
1.008280e+00 
9.882550e-01 
9.687246e-01 
9.497142e-01 
9.312509e-01 
9.133631e-01 
8.960804e-01 
8.794338e-01 
8.634555e-01 
8.481791e-01 
8.336394e-01 
8.198722e-01 
8.069147e-01 
7.948052e-01 
7.835830e-01 
7.732859e-01 
7.639498e-01 
7.556102e-01 
7.483022e-01 
7.420606e-01 
7.369193e-01 
7.329100e-01 
7.300633e-01 
7.284115e-01 
7.281176e-01 
7.297140e-01 
7.328299e-01 
7.372595e-01 
7.428910e-01 
7.496544e-01 
7.574991e-01 
7.663824e-01 
7.762648e-01 
7.871079e-01 
7.988736e-01 
8.115242e-01 
8.250221e-01 
8.393301e-01 
8.544118e-01 
8.702315e-01 
8.867543e-01 
9.039466e-01 
9.217758e-01 
9.402100e-01 
9.592176e-01 
9.787697e-01 
9.988392e-01 
1.019400e+00 
1.040429e+00 
1.061901e+00 
1.083795e+00 
1.106090e+00 
1.128766e+00 
1.151805e+00 
1.209904e+00 
1.185758e+00 
1.161912e+00 
1.138374e+00 
1.115158e+00 
1.092281e+00 
1.069761e+00 
1.047616e+00 
1.025867e+00 
1.004535e+00 
9.836435e-01 
9.632175e-01 
9.432822e-01 
9.238642e-01 
9.049917e-01 
8.866940e-01 
8.690022e-01 
8.519485e-01 
8.355670e-01 
8.198927e-01 
8.049626e-01 
7.908145e-01 
7.774879e-01 
7.650235e-01 
7.534632e-01 
7.428488e-01 
7.332195e-01 
7.246141e-01 
7.170709e-01 
7.106276e-01 
7.053215e-01 
7.011873e-01 
6.982584e-01 
6.965699e-01 
6.963162e-01 
6.980303e-01 
7.012856e-01 
7.058816e-01 
7.117090e-01 
7.186983e-01 
7.267979e-01 
7.359633e-01 
7.461524e-01 
7.573242e-01 
7.694376e-01 
7.824522e-01 
7.963277e-01 
8.110245e-01 
8.265036e-01 
8.427272e-01 
8.596586e-01 
8.772623e-01 
8.955041e-01 
9.143502e-01 
9.337684e-01 
9.537287e-01 
9.742032e-01 
9.951654e-01 
1.016590e+00 
1.038453e+00 
1.060732e+00 
1.083406e+00 
1.106454e+00 
1.129858e+00 
1.189382e+00 
1.164889e+00 
1.140690e+00 
1.116791e+00 
1.093207e+00 
1.069955e+00 
1.047053e+00 
1.024520e+00 
1.002376e+00 
9.806428e-01 
9.593448e-01 
9.385068e-01 
9.181549e-01 
8.983168e-01 
8.790214e-01 
8.602995e-01 
8.421831e-01 
8.247062e-01 
8.079042e-01 
7.918144e-01 
7.764755e-01 
7.619277e-01 
7.482130e-01 
7.353745e-01 
7.234573e-01 
7.125066e-01 
7.025659e-01 
6.936777e-01 
6.858836e-01 
6.792251e-01 
6.737428e-01 
6.694751e-01 
6.664583e-01 
6.647304e-01 
6.645227e-01 
6.663583e-01 
6.697587e-01 
6.745297e-01 
6.805641e-01 
6.877929e-01 
6.961629e-01 
7.056274e-01 
7.161412e-01 
7.276603e-01 
7.401406e-01 
7.535384e-01 
7.678105e-01 
7.829145e-01 
7.988091e-01 
8.154540e-01 
8.328104e-01 
8.508410e-01 
8.695099e-01 
8.887817e-01 
9.086232e-01 
9.290036e-01 
9.498939e-01 
9.712670e-01 
9.930968e-01 
1.015359e+00 
1.038030e+00 
1.061089e+00 
1.084516e+00 
1.108290e+00 
1.169278e+00 
1.144437e+00 
1.119880e+00 
1.095616e+00 
1.071659e+00 
1.048026e+00 
1.024736e+00 
1.001807e+00 
9.792609e-01 
9.571186e-01 
9.354043e-01 
9.141435e-01 
8.933634e-01 
8.730924e-01 
8.533605e-01 
8.341993e-01 
8.156426e-01 
7.977255e-01 
7.804854e-01 
7.639613e-01 
7.481942e-01 
7.332267e-01 
7.191034e-01 
7.058705e-01 
6.935759e-01 
6.822686e-01 
6.719968e-01 
6.628071e-01 
6.547450e-01 
6.478563e-01 
6.421855e-01 
6.377748e-01 
6.346639e-01 
6.328933e-01 
6.327374e-01 
6.346983e-01 
6.382505e-01 
6.432061e-01 
6.494601e-01 
6.569433e-01 
6.656007e-01 
6.753827e-01 
6.862410e-01 
6.981277e-01 
7.109955e-01 
7.247970e-01 
7.394860e-01 
7.550171e-01 
7.713461e-01 
7.884304e-01 
8.062291e-01 
8.247029e-01 
8.438139e-01 
8.635254e-01 
8.838031e-01 
9.046155e-01 
9.259326e-01 
9.477264e-01 
9.699703e-01 
9.926395e-01 
1.015710e+00 
1.039161e+00 
1.062971e+00 
1.087120e+00 
1.149614e+00 
1.124422e+00 
1.099506e+00 
1.074872e+00 
1.050537e+00 
1.026519e+00 
1.002834e+00 
9.795029e-01 
9.565461e-01 
9.339856e-01 
9.118453e-01 
8.901512e-01 
8.689310e-01 
8.482141e-01 
8.280315e-01 
8.084160e-01 
7.894024e-01 
7.710276e-01 
7.533306e-01 
7.363526e-01 
7.201368e-01 
7.047284e-01 
6.901748e-01 
6.765254e-01 
6.638314e-01 
6.521457e-01 
6.415214e-01 
6.320096e-01 
6.236609e-01 
6.165255e-01 
6.106524e-01 
6.060882e-01 
6.028762e-01 
6.010592e-01 
6.009605e-01 
6.030511e-01 
6.067626e-01 
6.119138e-01 
6.184014e-01 
6.261555e-01 
6.351190e-01 
6.452388e-01 
6.564628e-01 
6.687392e-01 
6.820166e-01 
6.962441e-01 
7.113717e-01 
7.273508e-01 
7.441343e-01 
7.616771e-01 
7.799360e-01 
7.988695e-01 
8.184382e-01 
8.386036e-01 
8.593308e-01 
8.805870e-01 
9.023417e-01 
9.245659e-01 
9.472326e-01 
9.703164e-01 
9.937935e-01 
1.017642e+00 
1.041840e+00 
1.066369e+00 
1.130429e+00 
1.104885e+00 
1.079604e+00 
1.054598e+00 
1.029880e+00 
1.005469e+00 
9.813830e-01 
9.576415e-01 
9.342655e-01 
9.112771e-01 
8.887004e-01 
8.665614e-01 
8.448886e-01 
8.237121e-01 
8.030638e-01 
7.829776e-01 
7.634896e-01 
7.446383e-01 
7.264645e-01 
7.090114e-01 
6.923247e-01 
6.764523e-01 
6.614448e-01 
6.473549e-01 
6.342375e-01 
6.221494e-01 
6.111488e-01 
6.012925e-01 
5.926364e-01 
5.852361e-01 
5.791457e-01 
5.744165e-01 
5.710956e-01 
5.692276e-01 
5.691924e-01 
5.714182e-01 
5.752984e-01 
5.806580e-01 
5.873949e-01 
5.954384e-01 
6.047285e-01 
6.152084e-01 
6.268215e-01 
6.395117e-01 
6.532230e-01 
6.679002e-01 
6.834896e-01 
6.999390e-01 
7.171984e-01 
7.352199e-01 
7.539577e-01 
7.733684e-01 
7.934106e-01 
8.140448e-01 
8.352348e-01 
8.569471e-01 
8.791501e-01 
9.018143e-01 
9.249123e-01 
9.484182e-01 
9.723079e-01 
9.965590e-01 
1.021150e+00 
1.046063e+00 
1.111747e+00 
1.085845e+00 
1.060196e+00 
1.034811e+00 
1.009705e+00 
9.848965e-01 
9.604028e-01 
9.362439e-01 
9.124407e-01 
8.890157e-01 
8.659930e-01 
8.433989e-01 
8.212619e-01 
7.996130e-01 
7.784849e-01 
7.579127e-01 
7.379337e-01 
7.185879e-01 
6.999179e-01 
6.819689e-01 
6.647892e-01 
6.484297e-01 
6.329441e-01 
6.183886e-01 
6.048224e-01 
5.923066e-01 
5.809046e-01 
5.706798e-01 
5.616940e-01 
5.540087e-01 
5.476840e-01 
5.427765e-01 
5.393379e-01 
5.374145e-01 
5.374343e-01 
5.397898e-01 
5.438463e-01 
5.494278e-01 
5.564321e-01 
5.647864e-01 
5.744273e-01 
5.852932e-01 
5.973228e-01 
6.104546e-01 
6.246277e-01 
6.397823e-01 
6.558604e-01 
6.728062e-01 
6.905662e-01 
7.090896e-01 
7.283283e-01 
7.482367e-01 
7.687712e-01 
7.898915e-01 
8.115602e-01 
8.337429e-01 
8.564073e-01 
8.795235e-01 
9.030634e-01 
9.270010e-01 
9.513119e-01 
9.759735e-01 
1.000965e+00 
1.026266e+00 
1.093527e+00 
1.067264e+00 
1.041249e+00 
1.015487e+00 
9.899941e-01 
9.647871e-01 
9.398842e-01 
9.153052e-01 
8.910708e-01 
8.672038e-01 
8.437285e-01 
8.206710e-01 
7.980602e-01 
7.759275e-01 
7.543064e-01 
7.332331e-01 
7.127462e-01 
6.928871e-01 
6.737001e-01 
6.552329e-01 
6.375360e-01 
6.206635e-01 
6.046724e-01 
5.896232e-01 
5.755792e-01 
5.626069e-01 
5.507751e-01 
5.401542e-01 
5.308130e-01 
5.228199e-01 
5.162416e-01 
5.111412e-01 
5.075751e-01 
5.055906e-01 
5.056819e-01 
5.081861e-01 
5.124357e-01 
5.182572e-01 
5.255490e-01 
5.342366e-01 
5.442529e-01 
5.555313e-01 
5.680046e-01 
5.816056e-01 
5.962679e-01 
6.119267e-01 
6.285193e-01 
6.459858e-01 
6.642694e-01 
6.833162e-01 
7.030756e-01 
7.234997e-01 
7.445432e-01 
7.661647e-01 
7.883261e-01 
8.109920e-01 
8.341296e-01 
8.577082e-01 
8.816996e-01 
9.060775e-01 
9.308175e-01 
9.558970e-01 
9.812950e-01 
1.006992e+00 
1.075821e+00 
1.049203e+00 
1.022822e+00 
9.966822e-01 
9.708003e-01 
9.451927e-01 
9.198773e-01 
8.948737e-01 
8.702027e-01 
8.458870e-01 
8.219510e-01 
7.984211e-01 
7.753260e-01 
7.526973e-01 
7.305695e-01 
7.089796e-01 
6.879673e-01 
6.675756e-01 
6.478505e-01 
6.288418e-01 
6.106027e-01 
5.931903e-01 
5.766654e-01 
5.610927e-01 
5.465405e-01 
5.330808e-01 
5.207887e-01 
5.097416e-01 
5.000167e-01 
4.916903e-01 
4.848369e-01 
4.795268e-01 
4.758217e-01 
4.737696e-01 
4.739359e-01 
4.765987e-01 
4.810557e-01 
4.871353e-01 
4.947363e-01 
5.037821e-01 
5.142012e-01 
5.259208e-01 
5.388675e-01 
5.529673e-01 
5.681477e-01 
5.843383e-01 
6.014715e-01 
6.194830e-01 
6.383124e-01 
6.579027e-01 
6.782007e-01 
6.991562e-01 
7.207226e-01 
7.428574e-01 
7.655214e-01 
7.886787e-01 
8.122957e-01 
8.363416e-01 
8.607878e-01 
8.856079e-01 
9.107775e-01 
9.362742e-01 
9.620771e-01 
9.881671e-01 
1.058657e+00 
1.031685e+00 
1.004938e+00 
9.784214e-01 
9.521500e-01 
9.261403e-01 
9.004100e-01 
8.749784e-01 
8.498663e-01 
8.250960e-01 
8.006922e-01 
7.766812e-01 
7.530919e-01 
7.299559e-01 
7.073080e-01 
6.851862e-01 
6.636312e-01 
6.426873e-01 
6.224024e-01 
6.028283e-01 
5.840209e-01 
5.660404e-01 
5.489514e-01 
5.328234e-01 
5.177298e-01 
5.037488e-01 
4.909624e-01 
4.794559e-01 
4.693158e-01 
4.606272e-01 
4.534741e-01 
4.479351e-01 
4.440784e-01 
4.419525e-01 
4.421969e-01 
4.450288e-01 
4.497096e-01 
4.560683e-01 
4.640039e-01 
4.734372e-01 
4.842907e-01 
4.964851e-01 
5.099389e-01 
5.245712e-01 
5.403024e-01 
5.570559e-01 
5.747588e-01 
5.933424e-01 
6.127423e-01 
6.328986e-01 
6.537552e-01 
6.752599e-01 
6.973648e-01 
7.200264e-01 
7.432049e-01 
7.668633e-01 
7.909678e-01 
8.154874e-01 
8.403933e-01 
8.656592e-01 
8.912609e-01 
9.171761e-01 
9.433842e-01 
9.698663e-01 
1.042057e+00 
1.014735e+00 
9.876241e-01 
9.607312e-01 
9.340706e-01 
9.076584e-01 
8.815119e-01 
8.556500e-01 
8.300931e-01 
8.048636e-01 
7.799858e-01 
7.554861e-01 
7.313934e-01 
7.077393e-01 
6.845587e-01 
6.618900e-01 
6.397752e-01 
6.182597e-01 
5.973930e-01 
5.772290e-01 
5.578261e-01 
5.392478e-01 
5.215629e-01 
5.048452e-01 
4.891743e-01 
4.746348e-01 
4.613166e-01 
4.493135e-01 
4.387222e-01 
4.296387e-01 
4.221574e-01 
4.163675e-01 
4.123451e-01 
4.101393e-01 
4.104642e-01 
4.134761e-01 
4.183985e-01 
4.250600e-01 
4.333594e-01 
4.432134e-01 
4.545378e-01 
4.672446e-01 
4.812437e-01 
4.964456e-01 
5.127632e-01 
5.301133e-01 
5.484171e-01 
5.676013e-01 
5.875976e-01 
6.083428e-01 
6.297783e-01 
6.518501e-01 
6.745092e-01 
6.977111e-01 
7.214152e-01 
7.455841e-01 
7.701837e-01 
7.951829e-01 
8.205530e-01 
8.462679e-01 
8.723035e-01 
8.986380e-01 
9.252511e-01 
9.521244e-01 
1.026047e+00 
9.983775e-01 
9.709058e-01 
9.436389e-01 
9.165907e-01 
8.897767e-01 
8.632138e-01 
8.369204e-01 
8.109166e-01 
7.852243e-01 
7.598675e-01 
7.348725e-01 
7.102682e-01 
6.860860e-01 
6.623608e-01 
6.391313e-01 
6.164401e-01 
5.943338e-01 
5.728632e-01 
5.520843e-01 
5.320581e-01 
5.128511e-01 
4.945363e-01 
4.771924e-01 
4.609052e-01 
4.457666e-01 
4.318747e-01 
4.193332e-01 
4.082501e-01 
3.987337e-01 
3.908916e-01 
3.848254e-01 
3.806217e-01 
3.783304e-01 
3.787370e-01 
3.819396e-01 
3.871227e-01 
3.941138e-01 
4.028103e-01 
4.131234e-01 
4.249602e-01 
4.382223e-01 
4.528093e-01 
4.686221e-01 
4.855651e-01 
5.035478e-01 
5.224856e-01 
5.423002e-01 
5.629194e-01 
5.842770e-01 
6.063118e-01 
6.289684e-01 
6.521968e-01 
6.759516e-01 
7.001916e-01 
7.248793e-01 
7.499805e-01 
7.754641e-01 
8.013016e-01 
8.274674e-01 
8.539377e-01 
8.806911e-01 
9.077079e-01 
9.349702e-01 
1.010652e+00 
9.826403e-01 
9.548115e-01 
9.271737e-01 
8.997404e-01 
8.725264e-01 
8.455481e-01 
8.188233e-01 
7.923715e-01 
7.662142e-01 
7.403748e-01 
7.148794e-01 
6.897564e-01 
6.650373e-01 
6.407568e-01 