# vtk DataFile Version 2.0 
Quadtree Mesh 
ASCII 
DATASET UNSTRUCTURED_GRID 
POINTS 4096 double 
-1.000000e+00 -1.000000e+00 0.000000e+00
-9.682540e-01 -1.000000e+00 0.000000e+00
-9.365079e-01 -1.000000e+00 0.000000e+00
-9.047619e-01 -1.000000e+00 0.000000e+00
-8.730159e-01 -1.000000e+00 0.000000e+00
-8.412698e-01 -1.000000e+00 0.000000e+00
-8.095238e-01 -1.000000e+00 0.000000e+00
-7.777778e-01 -1.000000e+00 0.000000e+00
-7.460317e-01 -1.000000e+00 0.000000e+00
-7.142857e-01 -1.000000e+00 0.000000e+00
-6.825397e-01 -1.000000e+00 0.000000e+00
-6.507937e-01 -1.000000e+00 0.000000e+00
-6.190476e-01 -1.000000e+00 0.000000e+00
-5.873016e-01 -1.000000e+00 0.000000e+00
-5.555556e-01 -1.000000e+00 0.000000e+00
-5.238095e-01 -1.000000e+00 0.000000e+00
-4.920635e-01 -1.000000e+00 0.000000e+00
-4.603175e-01 -1.000000e+00 0.000000e+00
-4.285714e-01 -1.000000e+00 0.000000e+00
-3.968254e-01 -1.000000e+00 0.000000e+00
-3.650794e-01 -1.000000e+00 0.000000e+00
-3.333333e-01 -1.000000e+00 0.000000e+00
-3.015873e-01 -1.000000e+00 0.000000e+00
-2.698413e-01 -1.000000e+00 0.000000e+00
-2.380952e-01 -1.000000e+00 0.000000e+00
-2.063492e-01 -1.000000e+00 0.000000e+00
-1.746032e-01 -1.000000e+00 0.000000e+00
-1.428571e-01 -1.000000e+00 0.000000e+00
-1.111111e-01 -1.000000e+00 0.000000e+00
-7.936508e-02 -1.000000e+00 0.000000e+00
-4.761905e-02 -1.000000e+00 0.000000e+00
-1.587302e-02 -1.000000e+00 0.000000e+00
1.587302e-02 -1.000000e+00 0.000000e+00
4.761905e-02 -1.000000e+00 0.000000e+00
7.936508e-02 -1.000000e+00 0.000000e+00
1.111111e-01 -1.000000e+00 0.000000e+00
1.428571e-01 -1.000000e+00 0.000000e+00
1.746032e-01 -1.000000e+00 0.000000e+00
2.063492e-01 -1.000000e+00 0.000000e+00
2.380952e-01 -1.000000e+00 0.000000e+00
2.698413e-01 -1.000000e+00 0.000000e+00
3.015873e-01 -1.000000e+00 0.000000e+00
3.333333e-01 -1.000000e+00 0.000000e+00
3.650794e-01 -1.000000e+00 0.000000e+00
3.968254e-01 -1.000000e+00 0.000000e+00
4.285714e-01 -1.000000e+00 0.000000e+00
4.603175e-01 -1.000000e+00 0.000000e+00
4.920635e-01 -1.000000e+00 0.000000e+00
5.238095e-01 -1.000000e+00 0.000000e+00
5.555556e-01 -1.000000e+00 0.000000e+00
5.873016e-01 -1.000000e+00 0.000000e+00
6.190476e-01 -1.000000e+00 0.000000e+00
6.507937e-01 -1.000000e+00 0.000000e+00
6.825397e-01 -1.000000e+00 0.000000e+00
7.142857e-01 -1.000000e+00 0.000000e+00
7.460317e-01 -1.000000e+00 0.000000e+00
7.777778e-01 -1.000000e+00 0.000000e+00
8.095238e-01 -1.000000e+00 0.000000e+00
8.412698e-01 -1.000000e+00 0.000000e+00
8.730159e-01 -1.000000e+00 0.000000e+00
9.047619e-01 -1.000000e+00 0.000000e+00
9.365079e-01 -1.000000e+00 0.000000e+00
9.682540e-01 -1.000000e+00 0.000000e+00
1.000000e+00 -1.000000e+00 0.000000e+00
-1.000000e+00 -9.682540e-01 0.000000e+00
-9.682540e-01 -9.682540e-01 0.000000e+00
-9.365079e-01 -9.682540e-01 0.000000e+00
-9.047619e-01 -9.682540e-01 0.000000e+00
-8.730159e-01 -9.682540e-01 0.000000e+00
-8.412698e-01 -9.682540e-01 0.000000e+00
-8.095238e-01 -9.682540e-01 0.000000e+00
-7.777778e-01 -9.682540e-01 0.000000e+00
-7.460317e-01 -9.682540e-01 0.000000e+00
-7.142857e-01 -9.682540e-01 0.000000e+00
-6.825397e-01 -9.682540e-01 0.000000e+00
-6.507937e-01 -9.682540e-01 0.000000e+00
-6.190476e-01 -9.682540e-01 0.000000e+00
-5.873016e-01 -9.682540e-01 0.000000e+00
-5.555556e-01 -9.682540e-01 0.000000e+00
-5.238095e-01 -9.682540e-01 0.000000e+00
-4.920635e-01 -9.682540e-01 0.000000e+00
-4.603175e-01 -9.682540e-01 0.000000e+00
-4.285714e-01 -9.682540e-01 0.000000e+00
-3.968254e-01 -9.682540e-01 0.000000e+00
-3.650794e-01 -9.682540e-01 0.000000e+00
-3.333333e-01 -9.682540e-01 0.000000e+00
-3.015873e-01 -9.682540e-01 0.000000e+00
-2.698413e-01 -9.682540e-01 0.000000e+00
-2.380952e-01 -9.682540e-01 0.000000e+00
-2.063492e-01 -9.682540e-01 0.000000e+00
-1.746032e-01 -9.682540e-01 0.000000e+00
-1.428571e-01 -9.682540e-01 0.000000e+00
-1.111111e-01 -9.682540e-01 0.000000e+00
-7.936508e-02 -9.682540e-01 0.000000e+00
-4.761905e-02 -9.682540e-01 0.000000e+00
-1.587302e-02 -9.682540e-01 0.000000e+00
1.587302e-02 -9.682540e-01 0.000000e+00
4.761905e-02 -9.682540e-01 0.000000e+00
7.936508e-02 -9.682540e-01 0.000000e+00
1.111111e-01 -9.682540e-01 0.000000e+00
1.428571e-01 -9.682540e-01 0.000000e+00
1.746032e-01 -9.682540e-01 0.000000e+00
2.063492e-01 -9.682540e-01 0.000000e+00
2.380952e-01 -9.682540e-01 0.000000e+00
2.698413e-01 -9.682540e-01 0.000000e+00
3.015873e-01 -9.682540e-01 0.000000e+00
3.333333e-01 -9.682540e-01 0.000000e+00
3.650794e-01 -9.682540e-01 0.000000e+00
3.968254e-01 -9.682540e-01 0.000000e+00
4.285714e-01 -9.682540e-01 0.000000e+00
4.603175e-01 -9.682540e-01 0.000000e+00
4.920635e-01 -9.682540e-01 0.000000e+00
5.238095e-01 -9.682540e-01 0.000000e+00
5.555556e-01 -9.682540e-01 0.000000e+00
5.873016e-01 -9.682540e-01 0.000000e+00
6.190476e-01 -9.682540e-01 0.000000e+00
6.507937e-01 -9.682540e-01 0.000000e+00
6.825397e-01 -9.682540e-01 0.000000e+00
7.142857e-01 -9.682540e-01 0.000000e+00
7.460317e-01 -9.682540e-01 0.000000e+00
7.777778e-01 -9.682540e-01 0.000000e+00
8.095238e-01 -9.682540e-01 0.000000e+00
8.412698e-01 -9.682540e-01 0.000000e+00
8.730159e-01 -9.682540e-01 0.000000e+00
9.047619e-01 -9.682540e-01 0.000000e+00
9.365079e-01 -9.682540e-01 0.000000e+00
9.682540e-01 -9.682540e-01 0.000000e+00
1.000000e+00 -9.682540e-01 0.000000e+00
-1.000000e+00 -9.365079e-01 0.000000e+00
-9.682540e-01 -9.365079e-01 0.000000e+00
-9.365079e-01 -9.365079e-01 0.000000e+00
-9.047619e-01 -9.365079e-01 0.000000e+00
-8.730159e-01 -9.365079e-01 0.000000e+00
-8.412698e-01 -9.365079e-01 0.000000e+00
-8.095238e-01 -9.365079e-01 0.000000e+00
-7.777778e-01 -9.365079e-01 0.000000e+00
-7.460317e-01 -9.365079e-01 0.000000e+00
-7.142857e-01 -9.365079e-01 0.000000e+00
-6.825397e-01 -9.365079e-01 0.000000e+00
-6.507937e-01 -9.365079e-01 0.000000e+00
-6.190476e-01 -9.365079e-01 0.000000e+00
-5.873016e-01 -9.365079e-01 0.000000e+00
-5.555556e-01 -9.365079e-01 0.000000e+00
-5.238095e-01 -9.365079e-01 0.000000e+00
-4.920635e-01 -9.365079e-01 0.000000e+00
-4.603175e-01 -9.365079e-01 0.000000e+00
-4.285714e-01 -9.365079e-01 0.000000e+00
-3.968254e-01 -9.365079e-01 0.000000e+00
-3.650794e-01 -9.365079e-01 0.000000e+00
-3.333333e-01 -9.365079e-01 0.000000e+00
-3.015873e-01 -9.365079e-01 0.000000e+00
-2.698413e-01 -9.365079e-01 0.000000e+00
-2.380952e-01 -9.365079e-01 0.000000e+00
-2.063492e-01 -9.365079e-01 0.000000e+00
-1.746032e-01 -9.365079e-01 0.000000e+00
-1.428571e-01 -9.365079e-01 0.000000e+00
-1.111111e-01 -9.365079e-01 0.000000e+00
-7.936508e-02 -9.365079e-01 0.000000e+00
-4.761905e-02 -9.365079e-01 0.000000e+00
-1.587302e-02 -9.365079e-01 0.000000e+00
1.587302e-02 -9.365079e-01 0.000000e+00
4.761905e-02 -9.365079e-01 0.000000e+00
7.936508e-02 -9.365079e-01 0.000000e+00
1.111111e-01 -9.365079e-01 0.000000e+00
1.428571e-01 -9.365079e-01 0.000000e+00
1.746032e-01 -9.365079e-01 0.000000e+00
2.063492e-01 -9.365079e-01 0.000000e+00
2.380952e-01 -9.365079e-01 0.000000e+00
2.698413e-01 -9.365079e-01 0.000000e+00
3.015873e-01 -9.365079e-01 0.000000e+00
3.333333e-01 -9.365079e-01 0.000000e+00
3.650794e-01 -9.365079e-01 0.000000e+00
3.968254e-01 -9.365079e-01 0.000000e+00
4.285714e-01 -9.365079e-01 0.000000e+00
4.603175e-01 -9.365079e-01 0.000000e+00
4.920635e-01 -9.365079e-01 0.000000e+00
5.238095e-01 -9.365079e-01 0.000000e+00
5.555556e-01 -9.365079e-01 0.000000e+00
5.873016e-01 -9.365079e-01 0.000000e+00
6.190476e-01 -9.365079e-01 0.000000e+00
6.507937e-01 -9.365079e-01 0.000000e+00
6.825397e-01 -9.365079e-01 0.000000e+00
7.142857e-01 -9.365079e-01 0.000000e+00
7.460317e-01 -9.365079e-01 0.000000e+00
7.777778e-01 -9.365079e-01 0.000000e+00
8.095238e-01 -9.365079e-01 0.000000e+00
8.412698e-01 -9.365079e-01 0.000000e+00
8.730159e-01 -9.365079e-01 0.000000e+00
9.047619e-01 -9.365079e-01 0.000000e+00
9.365079e-01 -9.365079e-01 0.000000e+00
9.682540e-01 -9.365079e-01 0.000000e+00
1.000000e+00 -9.365079e-01 0.000000e+00
-1.000000e+00 -9.047619e-01 0.000000e+00
-9.682540e-01 -9.047619e-01 0.000000e+00
-9.365079e-01 -9.047619e-01 0.000000e+00
-9.047619e-01 -9.047619e-01 0.000000e+00
-8.730159e-01 -9.047619e-01 0.000000e+00
-8.412698e-01 -9.047619e-01 0.000000e+00
-8.095238e-01 -9.047619e-01 0.000000e+00
-7.777778e-01 -9.047619e-01 0.000000e+00
-7.460317e-01 -9.047619e-01 0.000000e+00
-7.142857e-01 -9.047619e-01 0.000000e+00
-6.825397e-01 -9.047619e-01 0.000000e+00
-6.507937e-01 -9.047619e-01 0.000000e+00
-6.190476e-01 -9.047619e-01 0.000000e+00
-5.873016e-01 -9.047619e-01 0.000000e+00
-5.555556e-01 -9.047619e-01 0.000000e+00
-5.238095e-01 -9.047619e-01 0.000000e+00
-4.920635e-01 -9.047619e-01 0.000000e+00
-4.603175e-01 -9.047619e-01 0.000000e+00
-4.285714e-01 -9.047619e-01 0.000000e+00
-3.968254e-01 -9.047619e-01 0.000000e+00
-3.650794e-01 -9.047619e-01 0.000000e+00
-3.333333e-01 -9.047619e-01 0.000000e+00
-3.015873e-01 -9.047619e-01 0.000000e+00
-2.698413e-01 -9.047619e-01 0.000000e+00
-2.380952e-01 -9.047619e-01 0.000000e+00
-2.063492e-01 -9.047619e-01 0.000000e+00
-1.746032e-01 -9.047619e-01 0.000000e+00
-1.428571e-01 -9.047619e-01 0.000000e+00
-1.111111e-01 -9.047619e-01 0.000000e+00
-7.936508e-02 -9.047619e-01 0.000000e+00
-4.761905e-02 -9.047619e-01 0.000000e+00
-1.587302e-02 -9.047619e-01 0.000000e+00
1.587302e-02 -9.047619e-01 0.000000e+00
4.761905e-02 -9.047619e-01 0.000000e+00
7.936508e-02 -9.047619e-01 0.000000e+00
1.111111e-01 -9.047619e-01 0.000000e+00
1.428571e-01 -9.047619e-01 0.000000e+00
1.746032e-01 -9.047619e-01 0.000000e+00
2.063492e-01 -9.047619e-01 0.000000e+00
2.380952e-01 -9.047619e-01 0.000000e+00
2.698413e-01 -9.047619e-01 0.000000e+00
3.015873e-01 -9.047619e-01 0.000000e+00
3.333333e-01 -9.047619e-01 0.000000e+00
3.650794e-01 -9.047619e-01 0.000000e+00
3.968254e-01 -9.047619e-01 0.000000e+00
4.285714e-01 -9.047619e-01 0.000000e+00
4.603175e-01 -9.047619e-01 0.000000e+00
4.920635e-01 -9.047619e-01 0.000000e+00
5.238095e-01 -9.047619e-01 0.000000e+00
5.555556e-01 -9.047619e-01 0.000000e+00
5.873016e-01 -9.047619e-01 0.000000e+00
6.190476e-01 -9.047619e-01 0.000000e+00
[...]
POINT_DATA 4096 
SCALARS concentration double 1 
LOOKUP_TABLE default 
1.239645e+00 
1.214315e+00 
1.189162e+00 
1.164257e+00 
1.139624e+00 
1.115279e+00 
1.091238e+00 
1.067519e+00 
1.044138e+00 
1.021115e+00 
9.984701e-01 
9.762242e-01 
9.543999e-01 
9.330214e-01 
9.121139e-01 
8.917045e-01 
8.718218e-01 
8.524960e-01 
8.337590e-01 
8.156446e-01 
7.981879e-01 
7.814258e-01 
7.653968e-01 
7.501407e-01 
7.356987e-01 
7.221136e-01 
7.094310e-01 
6.976958e-01 
6.869523e-01 
6.772440e-01 
6.686142e-01 
6.611051e-01 
6.547579e-01 
6.496094e-01 
6.456923e-01 
6.430420e-01 
6.417095e-01 
6.422673e-01 
6.446478e-01 
6.485916e-01 
6.539344e-01 
6.605784e-01 
6.684577e-01 
6.775176e-01 
6.877061e-01 
6.989713e-01 
7.112618e-01 
7.245278e-01 
7.387203e-01 
7.537916e-01 
7.696953e-01 
7.863871e-01 
8.038232e-01 
8.219616e-01 
8.407623e-01 
8.601875e-01 
8.802011e-01 
9.007694e-01 
9.218605e-01 
9.434443e-01 
9.654927e-01 
9.879791e-01 
1.010879e+00 
1.034173e+00 
1.220669e+00 
1.195005e+00 
1.169509e+00 
1.144254e+00 
1.119263e+00 
1.094551e+00 
1.070135e+00 
1.046032e+00 
1.022259e+00 
9.988361e-01 
9.757830e-01 
9.531214e-01 
9.308740e-01 
9.090653e-01 
8.877215e-01 
8.668701e-01 
8.465407e-01 
8.267647e-01 
8.075754e-01 
7.890077e-01 
7.710988e-01 
7.538874e-01 
7.374142e-01 
7.217214e-01 
7.068530e-01 
6.928550e-01 
6.797766e-01 
6.676659e-01 
6.565705e-01 
6.465380e-01 
6.376156e-01 
6.298496e-01 
6.232852e-01 
6.179631e-01 
6.139192e-01 
6.111928e-01 
6.098411e-01 
6.104932e-01 
6.130255e-01 
6.171569e-01 
6.227235e-01 
6.296299e-01 
6.378096e-01 
6.472050e-01 
6.577599e-01 
6.694175e-01 
6.821225e-01 
6.958207e-01 
7.104597e-01 
7.259884e-01 
7.423574e-01 
7.595194e-01 
7.774280e-01 
7.960391e-01 
8.153108e-01 
8.352037e-01 
8.556804e-01 
8.767062e-01 
8.982481e-01 
9.202755e-01 
9.427595e-01 
9.656731e-01 
9.889911e-01 
1.012695e+00 
1.202161e+00 
1.176158e+00 
1.150318e+00 
1.124710e+00 
1.099357e+00 
1.074275e+00 
1.049480e+00 
1.024989e+00 
1.000819e+00 
9.769902e-01 
9.535219e-01 
9.304363e-01 
9.077565e-01 
8.855074e-01 
8.637155e-01 
8.424094e-01 
8.216194e-01 
8.013781e-01 
7.817199e-01 
7.626815e-01 
7.443015e-01 
7.266209e-01 
7.096825e-01 
6.935311e-01 
6.782136e-01 
6.637798e-01 
6.502822e-01 
6.377723e-01 
6.263020e-01 
6.159231e-01 
6.066873e-01 
5.986454e-01 
5.918469e-01 
5.863368e-01 
5.821552e-01 
5.793460e-01 
5.779737e-01 
5.787276e-01 
5.814187e-01 
5.857461e-01 
5.915492e-01 
5.987351e-01 
6.072355e-01 
6.169888e-01 
6.279337e-01 
6.400082e-01 
6.531522e-01 
6.673072e-01 
6.824166e-01 
6.984259e-01 
7.152825e-01 
7.329356e-01 
7.513363e-01 
7.704380e-01 
7.901972e-01 
8.105728e-01 
8.315262e-01 
8.530215e-01 
8.750251e-01 
8.975055e-01 
9.204335e-01 
9.437816e-01 
9.675242e-01 
9.916415e-01 
1.184134e+00 
1.157792e+00 
1.131606e+00 
1.105645e+00 
1.079929e+00 
1.054475e+00 
1.029298e+00 
1.004415e+00 
9.798431e-01 
9.556021e-01 
9.317119e-01 
9.081945e-01 
8.850733e-01 
8.623735e-01 
8.401223e-01 
8.183488e-01 
7.970842e-01 
7.763622e-01 
7.562184e-01 
7.366911e-01 
7.178207e-01 
6.996501e-01 
6.822244e-01 
6.655912e-01 
6.498005e-01 
6.349061e-01 
6.209636e-01 
6.080290e-01 
5.961586e-01 
5.854089e-01 
5.758366e-01 
5.674977e-01 
5.604469e-01 
5.547338e-01 
5.504034e-01 
5.475050e-01 
5.461115e-01 
5.469749e-01 
5.498315e-01 
5.543644e-01 
5.604190e-01 
5.679040e-01 
5.767482e-01 
5.868847e-01 
5.982458e-01 
6.107643e-01 
6.243748e-01 
6.390137e-01 
6.546202e-01 
6.711358e-01 
6.885040e-01 
7.066707e-01 
7.255842e-01 
7.451959e-01 
7.654601e-01 
7.863344e-01 
8.077790e-01 
8.297569e-01 
8.522337e-01 
8.751774e-01 
8.985583e-01 
9.223486e-01 
9.465227e-01 
9.710594e-01 
1.166607e+00 
1.139928e+00 
1.113397e+00 
1.087082e+00 
1.061002e+00 
1.035174e+00 
1.009612e+00 
9.843339e-01 
9.593561e-01 
9.346979e-01 
9.103797e-01 
8.864232e-01 
8.628521e-01 
8.396919e-01 
8.169702e-01 
7.947167e-01 
7.729637e-01 
7.517456e-01 
7.310993e-01 
7.110646e-01 
6.916836e-01 
6.730013e-01 
6.550652e-01 
6.379257e-01 
6.216362e-01 
6.062541e-01 
5.918392e-01 
5.784520e-01 
5.661535e-01 
5.550060e-01 
5.450717e-01 
5.364125e-01 
5.290889e-01 
5.231561e-01 
5.186647e-01 
5.156697e-01 
5.142545e-01 
5.152356e-01 
5.182643e-01 
5.230138e-01 
5.293375e-01 
5.371442e-01 
5.463582e-01 
5.569058e-01 
5.687126e-01 
5.817048e-01 
5.958112e-01 
6.109630e-01 
6.270946e-01 
6.441430e-01 
6.620475e-01 
6.807506e-01 
7.001980e-01 
7.203388e-01 
7.411255e-01 
7.625142e-01 
7.844640e-01 
8.069370e-01 
8.298981e-01 
8.533148e-01 
8.771569e-01 
9.013965e-01 
9.260078e-01 
9.509689e-01 
1.149603e+00 
1.122587e+00 
1.095713e+00 
1.069044e+00 
1.042600e+00 
1.016397e+00 
9.904491e-01 
9.647728e-01 
9.393855e-01 
9.143058e-01 
8.895538e-01 
8.651515e-01 
8.411226e-01 
8.174927e-01 
7.942899e-01 
7.715444e-01 
7.492892e-01 
7.275595e-01 
7.063937e-01 
6.858327e-01 
6.659204e-01 
6.467039e-01 
6.282331e-01 
6.105613e-01 
5.937454e-01 
5.778467e-01 
5.629294e-01 
5.490588e-01 
5.363018e-01 
5.247265e-01 
5.144019e-01 
5.053963e-01 
4.977771e-01 
4.916059e-01 
4.869397e-01 
4.838403e-01 
4.824028e-01 
4.835103e-01 
4.867169e-01 
4.916968e-01 
4.983102e-01 
5.064646e-01 
5.160777e-01 
5.270679e-01 
5.393525e-01 
5.528509e-01 
5.674853e-01 
5.831812e-01 
5.998677e-01 
6.174767e-01 
6.359434e-01 
6.552066e-01 
6.752095e-01 
6.958989e-01 
7.172257e-01 
7.391445e-01 
7.616133e-01 
7.845935e-01 
8.080493e-01 
8.319479e-01 
8.562587e-01 
8.809538e-01 
9.060074e-01 
9.313969e-01 
1.133144e+00 
1.105792e+00 
1.078575e+00 
1.051554e+00 
1.024747e+00 
9.981681e-01 
9.718330e-01 
9.457571e-01 
9.199575e-01 
8.944526e-01 
8.692621e-01 
8.444080e-01 
8.199139e-01 
7.958057e-01 
7.721116e-01 
7.488625e-01 
7.260917e-01 
7.038355e-01 
6.821330e-01 
6.610266e-01 
6.405619e-01 
6.207880e-01 
6.017572e-01 
5.835259e-01 
5.661543e-01 
5.497080e-01 
5.342559e-01 
5.198688e-01 
5.066197e-01 
4.945839e-01 
4.838376e-01 
4.744569e-01 
4.665167e-01 
4.600862e-01 
4.552298e-01 
4.520171e-01 
4.505566e-01 
4.517989e-01 
4.551900e-01 
4.604164e-01 
4.673438e-01 
4.758755e-01 
4.859209e-01 
4.973885e-01 
5.101869e-01 
5.242274e-01 
5.394249e-01 
5.556984e-01 
5.729714e-01 
5.911702e-01 
6.102257e-01 
6.300735e-01 
6.506538e-01 
6.719115e-01 
6.937958e-01 
7.162601e-01 
7.392613e-01 
7.627601e-01 
7.867203e-01 
8.111088e-01 
8.358949e-01 
8.610508e-01 
8.865506e-01 
9.123715e-01 
1.117234e+00 
1.089542e+00 
1.061985e+00 
1.034614e+00 
1.007445e+00 
9.804927e-01 
9.537711e-01 
9.272955e-01 
9.010825e-01 
8.751502e-01 
8.495181e-01 
8.242078e-01 
7.992429e-01 
7.746495e-01 
7.504558e-01 
7.266929e-01 
7.033946e-01 
6.805979e-01 
6.583429e-01 
6.366731e-01 
6.156356e-01 
5.952814e-01 
5.756654e-01 
5.568467e-01 
5.388894e-01 
5.218632e-01 
5.058421e-01 
4.909029e-01 
4.771259e-01 
4.645939e-01 
4.533916e-01 
4.436041e-01 
4.353147e-01 
4.286015e-01 
4.235377e-01 
4.202016e-01 
4.187170e-01 
4.201000e-01 
4.236844e-01 
4.291769e-01 
4.364464e-01 
4.453894e-01 
4.559044e-01 
4.678885e-01 
4.812404e-01 
4.958623e-01 
5.116609e-01 
5.285482e-01 
5.464406e-01 
5.652595e-01 
5.849313e-01 
6.053883e-01 
6.265681e-01 
6.484135e-01 
6.708722e-01 
6.938964e-01 
7.174423e-01 
7.414700e-01 
7.659430e-01 
7.908281e-01 
8.160948e-01 
8.417151e-01 
8.676635e-01 
8.939171e-01 
1.101819e+00 
1.073812e+00 
1.045924e+00 
1.018210e+00 
9.906851e-01 
9.633644e-01 
9.362610e-01 
9.093899e-01 
8.827669e-01 
8.564096e-01 
8.303373e-01 
8.045712e-01 
7.791345e-01 
7.540532e-01 
7.293556e-01 
7.050727e-01 
6.812388e-01 
6.578911e-01 
6.350706e-01 
6.128217e-01 
5.911929e-01 
5.702372e-01 
5.500116e-01 
5.305781e-01 
5.120043e-01 
4.943647e-01 
4.777385e-01 
4.622094e-01 
4.478651e-01 
4.347975e-01 
4.231008e-01 
4.128703e-01 
4.041997e-01 
3.971770e-01 
3.918857e-01 
3.884139e-01 
3.869021e-01 
3.884058e-01 
3.921893e-01 
3.979689e-01 
4.056111e-01 
4.150026e-01 
4.260283e-01 
4.385723e-01 
4.525217e-01 
4.677684e-01 
4.842098e-01 
5.017500e-01 
5.202980e-01 
5.397696e-01 
5.600872e-01 
5.811797e-01 
6.029822e-01 
6.254356e-01 
6.484861e-01 
6.720849e-01 
6.961877e-01 
7.207543e-01 
7.457481e-01 
7.711359e-01 
7.968873e-01 
8.229749e-01 
8.493733e-01 
8.760597e-01 
1.087123e+00 
1.058795e+00 
1.030576e+00 
1.002518e+00 
9.746375e-01 
9.469472e-01 
9.194601e-01 
8.921904e-01 
8.651536e-01 
8.383665e-01 
8.118480e-01 
7.856188e-01 
7.597019e-01 
7.341229e-01 
7.089098e-01 
6.840939e-01 
6.597091e-01 
6.357932e-01 
6.123874e-01 
5.895372e-01 
5.672922e-01 
5.457069e-01 
5.248405e-01 
5.047578e-01 
4.855299e-01 
4.672355e-01 
4.499601e-01 
4.337944e-01 
4.188350e-01 
4.051839e-01 
3.929465e-01 
3.822299e-01 
3.731403e-01 
3.657778e-01 
3.602372e-01 
3.566178e-01 
3.550788e-01 
3.567267e-01 
3.607306e-01 
3.668283e-01 
3.748835e-01 
3.847694e-01 
3.963545e-01 
4.095079e-01 
4.241041e-01 
4.400232e-01 
4.571523e-01 
4.753858e-01 
4.946255e-01 
5.147819e-01 
5.357734e-01 
5.575256e-01 
5.799714e-01 
6.030499e-01 
6.267062e-01 
6.508909e-01 
6.755593e-01 
7.006711e-01 
7.261899e-01 
7.520827e-01 
7.783196e-01 
8.048735e-01 
8.317196e-01 
8.588354e-01 
1.073068e+00 
1.044422e+00 
1.015878e+00 
9.874816e-01 
9.592495e-01 
9.311936e-01 
9.033262e-01 
8.756607e-01 
8.482120e-01 
8.209962e-01 
7.940317e-01 
7.673385e-01 
7.409393e-01 
7.148590e-01 
6.891253e-01 
6.637692e-01 
6.388244e-01 
6.143286e-01 
5.903234e-01 
5.668547e-01 
5.439730e-01 
5.217340e-01 
5.001990e-01 
4.794350e-01 
4.595166e-01 
4.405269e-01 
4.225577e-01 
4.057078e-01 
3.900836e-01 
3.757982e-01 
3.629696e-01 
3.517188e-01 
3.421664e-01 
3.344272e-01 
3.286096e-01 
3.248263e-01 
3.232568e-01 
3.250546e-01 
3.292951e-01 
3.357436e-01 
3.442566e-01 
3.546888e-01 
3.668890e-01 
3.807092e-01 
3.960082e-01 
4.126529e-01 
4.305185e-01 
4.494899e-01 
4.694615e-01 
4.903382e-01 
5.120344e-01 
5.344729e-01 
5.575845e-01 
5.813071e-01 
6.055849e-01 
6.303682e-01 
6.556123e-01 
6.812771e-01 
7.073267e-01 
7.337285e-01 
7.604532e-01 
7.874744e-01 
8.147681e-01 
8.423130e-01 
1.059676e+00 
1.030721e+00 
1.001857e+00 
9.731285e-01 
9.445508e-01 
9.161347e-01 
8.878919e-01 
8.598350e-01 
8.319779e-01 
8.043364e-01 
7.769278e-01 
7.497717e-01 
7.228899e-01 
6.963067e-01 
6.700493e-01 
6.441478e-01 
6.186357e-01 
5.935504e-01 
5.689332e-01 
5.448302e-01 
5.212925e-01 
4.983765e-01 
4.761449e-01 
4.546669e-01 
4.340203e-01 
4.142925e-01 
3.955819e-01 
3.779961e-01 
3.616520e-01 
3.466752e-01 
3.331981e-01 
3.213578e-01 
3.112924e-01 
3.031344e-01 
2.970086e-01 
2.930433e-01 
2.914406e-01 
2.933919e-01 
2.978887e-01 
3.047277e-01 
3.137510e-01 
3.247897e-01 
3.376690e-01 
3.522204e-01 
3.682843e-01 
3.857119e-01 
4.043659e-01 
4.241212e-01 
4.448649e-01 
4.664968e-01 
4.889274e-01 
5.120771e-01 
5.358748e-01 
5.602576e-01 
5.851696e-01 
6.105609e-01 
6.363874e-01 
6.626095e-01 
6.891920e-01 
7.161030e-01 
7.433143e-01 
7.708003e-01 
7.985383e-01 
8.265082e-01 
1.046972e+00 
1.017716e+00 
9.885401e-01 
9.594876e-01 
9.305716e-01 
9.018026e-01 
8.731910e-01 
8.447489e-01 
8.164893e-01 
7.884271e-01 
7.605788e-01 
7.329632e-01 
7.056010e-01 
6.785157e-01 
6.517336e-01 
6.252839e-01 
5.991995e-01 
5.735170e-01 
5.482774e-01 
5.235264e-01 
4.993148e-01 
4.756995e-01 
4.527437e-01 
4.305188e-01 
4.091051e-01 
3.885945e-01 
3.690920e-01 
3.507144e-01 
3.335899e-01 
3.178576e-01 
3.036663e-01 
2.911721e-01 
2.805346e-01 
2.719081e-01 
2.654374e-01 
2.612691e-01 
2.596302e-01 
2.617388e-01 
2.665155e-01 
2.737927e-01 
2.833894e-01 
2.951055e-01 
3.087379e-01 
3.240932e-01 
3.409905e-01 
3.592635e-01 
3.787613e-01 
3.993487e-01 
4.209059e-01 
4.433277e-01 
4.665215e-01 
4.904054e-01 
5.149075e-01 
5.399644e-01 
5.655206e-01 
5.915267e-01 
6.179394e-01 
6.447201e-01 
6.718346e-01 
6.992524e-01 
7.269462e-01 
7.548922e-01 
7.830690e-01 
8.114575e-01 
1.034979e+00 
1.005432e+00 
9.759544e-01 
9.465869e-01 
9.173418e-01 
8.882287e-01 
8.592572e-01 
8.304383e-01 
8.017843e-01 
7.733090e-01 
7.450280e-01 
7.169588e-01 
6.891213e-01 
6.615378e-01 
6.342332e-01 
6.072359e-01 
5.805774e-01 
5.542934e-01 
5.284237e-01 
5.030132e-01 
4.781119e-01 
4.537762e-01 
4.300699e-01 
4.070652e-01 
3.848452e-01 
3.635059e-01 
3.431585e-01 
3.239290e-01 
3.059573e-01 
2.893972e-01 
2.744159e-01 
2.611925e-01 
2.499131e-01 
2.407594e-01 
2.338998e-01 
2.295037e-01 
2.278259e-01 
2.300954e-01 
2.351810e-01 
2.429551e-01 
2.532006e-01 
2.656781e-01 
2.801495e-01 
2.963913e-01 
3.141978e-01 
3.333836e-01 
3.537837e-01 
3.752531e-01 
3.976653e-01 
4.209110e-01 
4.448948e-01 
4.695336e-01 
4.947553e-01 
5.204971e-01 
5.467041e-01 
5.733283e-01 
6.003277e-01 
6.276651e-01 
6.553076e-01 
6.832265e-01 
7.113964e-01 
7.397950e-01 
7.684024e-01 
7.972007e-01 
1.023724e+00 
9.938954e-01 
9.641262e-01 
9.344545e-01 
9.048913e-01 
8.754450e-01 
8.461244e-01 
8.169395e-01 
7.879016e-01 
7.590234e-01 
7.303192e-01 
7.018056e-01 
6.735009e-01 
6.454261e-01 
6.176049e-01 
5.900639e-01 
5.628333e-01 
5.359471e-01 
5.094435e-01 
4.833657e-01 
4.577620e-01 
4.326878e-01 
4.082061e-01 
3.843903e-01 
3.613254e-01 
3.391110e-01 
3.178639e-01 
2.977185e-01 
2.788263e-01 
2.613567e-01 
2.454983e-01 
2.314577e-01 
2.194536e-01 
2.097019e-01 
2.024008e-01 
1.977476e-01 
1.960279e-01 
1.984622e-01 
2.038918e-01 
2.122358e-01 
2.232224e-01 
2.365614e-01 
2.519715e-01 
2.691931e-01 
2.879926e-01 
3.081636e-01 
3.295271e-01 
3.519286e-01 
3.752363e-01 
3.993372e-01 
4.241345e-01 
4.495452e-01 
4.754978e-01 
5.019309e-01 
5.287913e-01 
5.560328e-01 
5.836152e-01 
6.115032e-01 
6.396664e-01 
6.680779e-01 
6.967144e-01 
7.255552e-01 
7.545820e-01 
7.837785e-01 
1.013220e+00 
9.831138e-01 
9.530644e-01 
9.231013e-01 
8.932330e-01 
8.634668e-01 
8.338105e-01 
8.042730e-01 
7.748646e-01 
7.455968e-01 
7.164827e-01 
6.875373e-01 
6.587777e-01 
6.302230e-01 
6.018954e-01 
5.738197e-01 
5.460240e-01 
5.185401e-01 
4.914040e-01 
4.646559e-01 
4.383422e-01 
4.125160e-01 
3.872392e-01 
3.625849e-01 
3.386395e-01 
3.155054e-01 
2.933035e-01 
2.721752e-01 
2.522831e-01 
2.338131e-01 
2.169779e-01 
2.020168e-01 
1.891889e-01 
1.787538e-01 
1.709471e-01 
1.660018e-01 
1.642377e-01 
1.668396e-01 
1.726571e-01 
1.816633e-01 
1.935041e-01 
2.078248e-01 
2.242899e-01 
2.425970e-01 
2.624808e-01 
2.837134e-01 
3.061019e-01 
3.294842e-01 
3.537240e-01 
3.787069e-01 
4.043361e-01 
4.305300e-01 
4.572191e-01 
4.843442e-01 
5.118547e-01 
5.397070e-01 
5.678635e-01 
5.962917e-01 
6.249637e-01 
6.538550e-01 
6.829443e-01 
7.122130e-01 
7.416444e-01 
7.712239e-01 
1.003364e+00 
9.730187e-01 
9.427102e-01 
9.124752e-01 
8.823214e-01 
8.522552e-01 
8.222835e-01 
7.924141e-01 
7.626560e-01 
7.330193e-01 
7.035159e-01 
6.741591e-01 
6.449641e-01 
6.159486e-01 
5.871324e-01 
5.585383e-01 
5.301920e-01 
5.021225e-01 
4.743626e-01 
4.469498e-01 
4.199270e-01 
3.933444e-01 
3.672617e-01 
3.417505e-01 
3.168968e-01 
2.928036e-01 
2.695943e-01 
2.474152e-01 
2.264391e-01 
2.068692e-01 
1.889442e-01 
1.729412e-01 
1.591696e-01 
1.479464e-01 
1.395547e-01 
1.342742e-01 
1.324629e-01 
1.352230e-01 
1.414813e-01 
1.512657e-01 
1.640998e-01 
1.795468e-01 
1.972033e-01 
2.167160e-01 
2.377842e-01 
2.601585e-01 
2.836338e-01 
3.080426e-01 
3.332470e-01 
3.591331e-01 
3.856065e-01 
4.125884e-01 
4.400128e-01 
4.678240e-01 
4.959748e-01 
5.244252e-01 
5.531410e-01 
5.820932e-01 
6.112565e-01 
6.406092e-01 
6.701323e-01 
6.998092e-01 
7.296253e-01 
7.595679e-01 
9.944468e-01 
9.638584e-01 
9.333013e-01 
9.028052e-01 
8.723774e-01 
8.420233e-01 
8.117488e-01 
7.815606e-01 
7.514664e-01 
7.214751e-01 
6.915970e-01 
6.618438e-01 
6.322289e-01 
6.027680e-01 
5.734787e-01 
5.443812e-01 
5.154981e-01 
4.868550e-01 
4.584808e-01 
4.304089e-01 
4.026779e-01 
3.753343e-01 
3.484346e-01 
3.220474e-01 
2.962566e-01 
2.711637e-01 
2.468913e-01 
2.235877e-01 
2.014332e-01 
1.806474e-01 
1.614970e-01 
1.443032e-01 
1.294379e-01 
1.172955e-01 
1.082194e-01 
1.025520e-01 
1.006913e-01 
1.036225e-01 
1.103946e-01 
1.211175e-01 
1.351219e-01 
1.518734e-01 
1.708817e-01 
1.917319e-01 
2.140873e-01 
2.376796e-01 
2.622958e-01 
2.877665e-01 
3.139561e-01 
3.407545e-01 
3.680718e-01 
3.958343e-01 
4.239811e-01 
4.524612e-01 
4.812324e-01 
5.102590e-01 
5.395111e-01 
5.689629e-01 
5.985926e-01 
6.283811e-01 
6.583122e-01 
6.883715e-01 
7.185465e-01 
7.488263e-01 
9.863941e-01 
9.555833e-01 
9.247940e-01 
8.940543e-01 
8.633706e-01 
8.327474e-01 
8.021896e-01 
7.717027e-01 
7.412932e-01 
7.109686e-01 
6.807376e-01 
6.506103e-01 
6.205983e-01 
5.907150e-01 
5.609755e-01 
5.313969e-01 
5.019985e-01 
4.728017e-01 
4.438310e-01 
4.151148e-01 
3.866873e-01 
3.585902e-01 
3.308751e-01 
3.036061e-01 
2.768621e-01 
2.507398e-01 
2.253575e-01 
2.008617e-01 
1.774363e-01 
1.553137e-01 
1.347875e-01 
1.162259e-01 
1.000781e-01 
8.684805e-02 
7.695807e-02 
7.083778e-02 
6.892440e-02 
7.202966e-02 
7.940569e-02 
9.128260e-02 
1.066831e-01 
1.249606e-01 
1.455084e-01 
1.678419e-01 
1.915910e-01 
2.164751e-01 
2.422795e-01 
2.688391e-01 
2.960252e-01 
3.237354e-01 
3.518877e-01 
3.804158e-01 
4.092656e-01 
4.383928e-01 
4.677609e-01 
4.973395e-01 
5.271030e-01 
5.570296e-01 
5.871008e-01 
6.173009e-01 
6.476162e-01 
6.780348e-01 
7.085464e-01 
7.391421e-01 
9.792121e-01 
9.481960e-01 
9.171928e-01 
8.862290e-01 
8.553099e-01 
8.244391e-01 
7.936205e-01 
7.628584e-01 
7.321582e-01 
7.015259e-01 
6.709686e-01 
6.404949e-01 
6.101141e-01 
5.798375e-01 
5.496774e-01 
5.196476e-01 
4.897633e-01 
4.600417e-01 
4.305023e-01 
4.011685e-01 
3.720689e-01 
3.432396e-01 
3.147260e-01 
2.865851e-01 
2.588877e-01 
2.317217e-01 
2.051969e-01 
1.794528e-01 
1.546704e-01 
1.310874e-01 
1.090174e-01 
8.887503e-02 
7.120202e-02 
5.666566e-02 
4.579229e-02 
3.913576e-02 
3.716641e-02 
4.044686e-02 
4.854516e-02 
6.188158e-02 
7.896694e-02 
9.905018e-02 
1.213534e-01 
1.453197e-01 
1.705580e-01 
1.967884e-01 
2.238062e-01 
2.514591e-01 
2.796313e-01 
3.082326e-01 
3.371922e-01 
3.664537e-01 
3.959720e-01 
4.257106e-01 
4.556395e-01 
4.857339e-01 
5.159729e-01 
5.463391e-01 
5.768178e-01 
6.073964e-01 
6.380639e-01 
6.688112e-01 
6.996301e-01 
7.305136e-01 
9.729370e-01 
9.417346e-01 
9.105371e-01 
8.793699e-01 
8.482373e-01 
8.171420e-01 
7.860869e-01 
7.550754e-01 
7.241115e-01 
6.932000e-01 
6.623464e-01 
6.315574e-01 
6.008406e-01 
5.702045e-01 
5.396587e-01 
5.092135e-01 
4.788802e-01 
4.486711e-01 
4.186009e-01 
3.886877e-01 
3.589542e-01 
3.294298e-01 
3.001521e-01 
2.711686e-01 
2.425387e-01 
2.143375e-01 
1.866608e-01 
1.596341e-01 
1.334255e-01 
1.082649e-01 
8.447117e-02 
6.249307e-02 
4.297057e-02 
2.683379e-02 
1.474640e-02 
7.445948e-03 
5.416395e-03 
8.874824e-03 
1.785564e-02 
3.310305e-02 
5.224285e-02 
7.449960e-02 
9.879592e-02 
1.245306e-01 
1.513243e-01 
1.789219e-01 
2.071448e-01 
2.358641e-01 
2.649838e-01 
2.944306e-01 
3.241484e-01 
3.540930e-01 
3.842294e-01 
4.145295e-01 
4.449703e-01 
4.755330e-01 
5.062020e-01 
5.369641e-01 
5.678085e-01 
5.987256e-01 
6.297076e-01 
6.607475e-01 
6.918394e-01 
7.229781e-01 
9.676065e-01 
9.362380e-01 
9.048668e-01 
8.735179e-01 
8.421950e-01 
8.108999e-01 
7.796347e-01 
7.484016e-01 
7.172037e-01 
6.860442e-01 
6.549274e-01 
6.238582e-01 
5.928420e-01 
5.618852e-01 
5.309943e-01 
5.001762e-01 
4.694382e-01 
4.387885e-01 
4.082370e-01 
3.777963e-01 
3.474833e-01 
3.173199e-01 
2.873346e-01 
2.575634e-01 
2.280517e-01 
1.988572e-01 
1.700558e-01 
1.417497e-01 
1.140810e-01 
8.725256e-02 
6.156165e-02 
3.745643e-02 
1.562969e-02 
-2.339557e-03 
-1.556706e-02 
-2.360877e-02 
-2.585273e-02 
-2.166860e-02 
-1.151998e-02 
5.272757e-03 
2.693039e-02 
5.188578e-02 
7.838797e-02 
1.059630e-01 
1.343122e-01 
1.632384e-01 
1.926068e-01 
2.223218e-01 
2.523137e-01 
2.825302e-01 
3.129316e-01 
3.434871e-01 
3.741724e-01 
4.049680e-01 
4.358584e-01 
4.668306e-01 
4.978741e-01 
5.289800e-01 
5.601409e-01 
5.913506e-01 
6.226036e-01 
6.538953e-01 
6.852218e-01 
7.165795e-01 
9.632709e-01 
9.317566e-01 
9.002324e-01 
8.687240e-01 
8.372346e-01 
8.057652e-01 
7.743172e-01 
7.428920e-01 
7.114914e-01 
6.801175e-01 
6.487733e-01 
6.174619e-01 
5.861869e-01 
5.549523e-01 
5.237619e-01 