# vtk DataFile Version 2.0 
Quadtree Mesh 
ASCII 
DATASET UNSTRUCTURED_GRID 
POINTS 4096 double 
-1.000000e+00 -1.000000e+00 0.000000e+00
-9.682540e-01 -1.000000e+00 0.000000e+00
-9.365079e-01 -1.000000e+00 0.000000e+00
-9.047619e-01 -1.000000e+00 0.000000e+00
-8.730159e-01 -1.000000e+00 0.000000e+00
-8.412698e-01 -1.000000e+00 0.000000e+00
-8.095238e-01 -1.000000e+00 0.000000e+00
-7.777778e-01 -1.000000e+00 0.000000e+00
-7.460317e-01 -1.000000e+00 0.000000e+00
-7.142857e-01 -1.000000e+00 0.000000e+00
-6.825397e-01 -1.000000e+00 0.000000e+00
-6.507937e-01 -1.000000e+00 0.000000e+00
-6.190476e-01 -1.000000e+00 0.000000e+00
-5.873016e-01 -1.000000e+00 0.000000e+00
-5.555556e-01 -1.000000e+00 0.000000e+00
-5.238095e-01 -1.000000e+00 0.000000e+00
-4.920635e-01 -1.000000e+00 0.000000e+00
-4.603175e-01 -1.000000e+00 0.000000e+00
-4.285714e-01 -1.000000e+00 0.000000e+00
-3.968254e-01 -1.000000e+00 0.000000e+00
-3.650794e-01 -1.000000e+00 0.000000e+00
-3.333333e-01 -1.000000e+00 0.000000e+00
-3.015873e-01 -1.000000e+00 0.000000e+00
-2.698413e-01 -1.000000e+00 0.000000e+00
-2.380952e-01 -1.000000e+00 0.000000e+00
-2.063492e-01 -1.000000e+00 0.000000e+00
-1.746032e-01 -1.000000e+00 0.000000e+00
-1.428571e-01 -1.000000e+00 0.000000e+00
-1.111111e-01 -1.000000e+00 0.000000e+00
-7.936508e-02 -1.000000e+00 0.000000e+00
-4.761905e-02 -1.000000e+00 0.000000e+00
-1.587302e-02 -1.000000e+00 0.000000e+00
1.587302e-02 -1.000000e+00 0.000000e+00
4.761905e-02 -1.000000e+00 0.000000e+00
7.936508e-02 -1.000000e+00 0.000000e+00
1.111111e-01 -1.000000e+00 0.000000e+00
1.428571e-01 -1.000000e+00 0.000000e+00
1.746032e-01 -1.000000e+00 0.000000e+00
2.063492e-01 -1.000000e+00 0.000000e+00
2.380952e-01 -1.000000e+00 0.000000e+00
2.698413e-01 -1.000000e+00 0.000000e+00
3.015873e-01 -1.000000e+00 0.000000e+00
3.333333e-01 -1.000000e+00 0.000000e+00
3.650794e-01 -1.000000e+00 0.000000e+00
3.968254e-01 -1.000000e+00 0.000000e+00
4.285714e-01 -1.000000e+00 0.000000e+00
4.603175e-01 -1.000000e+00 0.000000e+00
4.920635e-01 -1.000000e+00 0.000000e+00
5.238095e-01 -1.000000e+00 0.000000e+00
5.555556e-01 -1.000000e+00 0.000000e+00
5.873016e-01 -1.000000e+00 0.000000e+00
6.190476e-01 -1.000000e+00 0.000000e+00
6.507937e-01 -1.000000e+00 0.000000e+00
6.825397e-01 -1.000000e+00 0.000000e+00
7.142857e-01 -1.000000e+00 0.000000e+00
7.460317e-01 -1.000000e+00 0.000000e+00
7.777778e-01 -1.000000e+00 0.000000e+00
8.095238e-01 -1.000000e+00 0.000000e+00
8.412698e-01 -1.000000e+00 0.000000e+00
8.730159e-01 -1.000000e+00 0.000000e+00
9.047619e-01 -1.000000e+00 0.000000e+00
9.365079e-01 -1.000000e+00 0.000000e+00
9.682540e-01 -1.000000e+00 0.000000e+00
1.000000e+00 -1.000000e+00 0.000000e+00
-1.000000e+00 -9.682540e-01 0.000000e+00
-9.682540e-01 -9.682540e-01 0.000000e+00
-9.365079e-01 -9.682540e-01 0.000000e+00
-9.047619e-01 -9.682540e-01 0.000000e+00
-8.730159e-01 -9.682540e-01 0.000000e+00
-8.412698e-01 -9.682540e-01 0.000000e+00
-8.095238e-01 -9.682540e-01 0.000000e+00
-7.777778e-01 -9.682540e-01 0.000000e+00
-7.460317e-01 -9.682540e-01 0.000000e+00
-7.142857e-01 -9.682540e-01 0.000000e+00
-6.825397e-01 -9.682540e-01 0.000000e+00
-6.507937e-01 -9.682540e-01 0.000000e+00
-6.190476e-01 -9.682540e-01 0.000000e+00
-5.873016e-01 -9.682540e-01 0.000000e+00
-5.555556e-01 -9.682540e-01 0.000000e+00
-5.238095e-01 -9.682540e-01 0.000000e+00
-4.920635e-01 -9.682540e-01 0.000000e+00
-4.603175e-01 -9.682540e-01 0.000000e+00
-4.285714e-01 -9.682540e-01 0.000000e+00
-3.968254e-01 -9.682540e-01 0.000000e+00
-3.650794e-01 -9.682540e-01 0.000000e+00
-3.333333e-01 -9.682540e-01 0.000000e+00
-3.015873e-01 -9.682540e-01 0.000000e+00
-2.698413e-01 -9.682540e-01 0.000000e+00
-2.380952e-01 -9.682540e-01 0.000000e+00
-2.063492e-01 -9.682540e-01 0.000000e+00
-1.746032e-01 -9.682540e-01 0.000000e+00
-1.428571e-01 -9.682540e-01 0.000000e+00
-1.111111e-01 -9.682540e-01 0.000000e+00
-7.936508e-02 -9.682540e-01 0.000000e+00
-4.761905e-02 -9.682540e-01 0.000000e+00
-1.587302e-02 -9.682540e-01 0.000000e+00
1.587302e-02 -9.682540e-01 0.000000e+00
4.761905e-02 -9.682540e-01 0.000000e+00
7.936508e-02 -9.682540e-01 0.000000e+00
1.111111e-01 -9.682540e-01 0.000000e+00
1.428571e-01 -9.682540e-01 0.000000e+00
1.746032e-01 -9.682540e-01 0.000000e+00
2.063492e-01 -9.682540e-01 0.000000e+00
2.380952e-01 -9.682540e-01 0.000000e+00
2.698413e-01 -9.682540e-01 0.000000e+00
3.015873e-01 -9.682540e-01 0.000000e+00
3.333333e-01 -9.682540e-01 0.000000e+00
3.650794e-01 -9.682540e-01 0.000000e+00
3.968254e-01 -9.682540e-01 0.000000e+00
4.285714e-01 -9.682540e-01 0.000000e+00
4.603175e-01 -9.682540e-01 0.000000e+00
4.920635e-01 -9.682540e-01 0.000000e+00
5.238095e-01 -9.682540e-01 0.000000e+00
5.555556e-01 -9.682540e-01 0.000000e+00
5.873016e-01 -9.682540e-01 0.000000e+00
6.190476e-01 -9.682540e-01 0.000000e+00
6.507937e-01 -9.682540e-01 0.000000e+00
6.825397e-01 -9.682540e-01 0.000000e+00
7.142857e-01 -9.682540e-01 0.000000e+00
7.460317e-01 -9.682540e-01 0.000000e+00
7.777778e-01 -9.682540e-01 0.000000e+00
8.095238e-01 -9.682540e-01 0.000000e+00
8.412698e-01 -9.682540e-01 0.000000e+00
8.730159e-01 -9.682540e-01 0.000000e+00
9.047619e-01 -9.682540e-01 0.000000e+00
9.365079e-01 -9.682540e-01 0.000000e+00
9.682540e-01 -9.682540e-01 0.000000e+00
1.000000e+00 -9.682540e-01 0.000000e+00
-1.000000e+00 -9.365079e-01 0.000000e+00
-9.682540e-01 -9.365079e-01 0.000000e+00
-9.365079e-01 -9.365079e-01 0.000000e+00
-9.047619e-01 -9.365079e-01 0.000000e+00
-8.730159e-01 -9.365079e-01 0.000000e+00
-8.412698e-01 -9.365079e-01 0.000000e+00
-8.095238e-01 -9.365079e-01 0.000000e+00
-7.777778e-01 -9.365079e-01 0.000000e+00
-7.460317e-01 -9.365079e-01 0.000000e+00
-7.142857e-01 -9.365079e-01 0.000000e+00
-6.825397e-01 -9.365079e-01 0.000000e+00
-6.507937e-01 -9.365079e-01 0.000000e+00
-6.190476e-01 -9.365079e-01 0.000000e+00
-5.873016e-01 -9.365079e-01 0.000000e+00
-5.555556e-01 -9.365079e-01 0.000000e+00
-5.238095e-01 -9.365079e-01 0.000000e+00
-4.920635e-01 -9.365079e-01 0.000000e+00
-4.603175e-01 -9.365079e-01 0.000000e+00
-4.285714e-01 -9.365079e-01 0.000000e+00
-3.968254e-01 -9.365079e-01 0.000000e+00
-3.650794e-01 -9.365079e-01 0.000000e+00
-3.333333e-01 -9.365079e-01 0.000000e+00
-3.015873e-01 -9.365079e-01 0.000000e+00
-2.698413e-01 -9.365079e-01 0.000000e+00
-2.380952e-01 -9.365079e-01 0.000000e+00
-2.063492e-01 -9.365079e-01 0.000000e+00
-1.746032e-01 -9.365079e-01 0.000000e+00
-1.428571e-01 -9.365079e-01 0.000000e+00
-1.111111e-01 -9.365079e-01 0.000000e+00
-7.936508e-02 -9.365079e-01 0.000000e+00
-4.761905e-02 -9.365079e-01 0.000000e+00
-1.587302e-02 -9.365079e-01 0.000000e+00
1.587302e-02 -9.365079e-01 0.000000e+00
4.761905e-02 -9.365079e-01 0.000000e+00
7.936508e-02 -9.365079e-01 0.000000e+00
1.111111e-01 -9.365079e-01 0.000000e+00
1.428571e-01 -9.365079e-01 0.000000e+00
1.746032e-01 -9.365079e-01 0.000000e+00
2.063492e-01 -9.365079e-01 0.000000e+00
2.380952e-01 -9.365079e-01 0.000000e+00
2.698413e-01 -9.365079e-01 0.000000e+00
3.015873e-01 -9.365079e-01 0.000000e+00
3.333333e-01 -9.365079e-01 0.000000e+00
3.650794e-01 -9.365079e-01 0.000000e+00
3.968254e-01 -9.365079e-01 0.000000e+00
4.285714e-01 -9.365079e-01 0.000000e+00
4.603175e-01 -9.365079e-01 0.000000e+00
4.920635e-01 -9.365079e-01 0.000000e+00
5.238095e-01 -9.365079e-01 0.000000e+00
5.555556e-01 -9.365079e-01 0.000000e+00
5.873016e-01 -9.365079e-01 0.000000e+00
6.190476e-01 -9.365079e-01 0.000000e+00
6.507937e-01 -9.365079e-01 0.000000e+00
6.825397e-01 -9.365079e-01 0.000000e+00
7.142857e-01 -9.365079e-01 0.000000e+00
7.460317e-01 -9.365079e-01 0.000000e+00
7.777778e-01 -9.365079e-01 0.000000e+00
8.095238e-01 -9.365079e-01 0.000000e+00
8.412698e-01 -9.365079e-01 0.000000e+00
8.730159e-01 -9.365079e-01 0.000000e+00
9.047619e-01 -9.365079e-01 0.000000e+00
9.365079e-01 -9.365079e-01 0.000000e+00
9.682540e-01 -9.365079e-01 0.000000e+00
1.000000e+00 -9.365079e-01 0.000000e+00
-1.000000e+00 -9.047619e-01 0.000000e+00
-9.682540e-01 -9.047619e-01 0.000000e+00
-9.365079e-01 -9.047619e-01 0.000000e+00
-9.047619e-01 -9.047619e-01 0.000000e+00
-8.730159e-01 -9.047619e-01 0.000000e+00
-8.412698e-01 -9.047619e-01 0.000000e+00
-8.095238e-01 -9.047619e-01 0.000000e+00
-7.777778e-01 -9.047619e-01 0.000000e+00
-7.460317e-01 -9.047619e-01 0.000000e+00
-7.142857e-01 -9.047619e-01 0.000000e+00
-6.825397e-01 -9.047619e-01 0.000000e+00
-6.507937e-01 -9.047619e-01 0.000000e+00
-6.190476e-01 -9.047619e-01 0.000000e+00
-5.873016e-01 -9.047619e-01 0.000000e+00
-5.555556e-01 -9.047619e-01 0.000000e+00
-5.238095e-01 -9.047619e-01 0.000000e+00
-4.920635e-01 -9.047619e-01 0.000000e+00
-4.603175e-01 -9.047619e-01 0.000000e+00
-4.285714e-01 -9.047619e-01 0.000000e+00
-3.968254e-01 -9.047619e-01 0.000000e+00
-3.650794e-01 -9.047619e-01 0.000000e+00
-3.333333e-01 -9.047619e-01 0.000000e+00
-3.015873e-01 -9.047619e-01 0.000000e+00
-2.698413e-01 -9.047619e-01 0.000000e+00
-2.380952e-01 -9.047619e-01 0.000000e+00
-2.063492e-01 -9.047619e-01 0.000000e+00
-1.746032e-01 -9.047619e-01 0.000000e+00
-1.428571e-01 -9.047619e-01 0.000000e+00
-1.111111e-01 -9.047619e-01 0.000000e+00
-7.936508e-02 -9.047619e-01 0.000000e+00
-4.761905e-02 -9.047619e-01 0.000000e+00
-1.587302e-02 -9.047619e-01 0.000000e+00
1.587302e-02 -9.047619e-01 0.000000e+00
4.761905e-02 -9.047619e-01 0.000000e+00
7.936508e-02 -9.047619e-01 0.000000e+00
1.111111e-01 -9.047619e-01 0.000000e+00
1.428571e-01 -9.047619e-01 0.000000e+00
1.746032e-01 -9.047619e-01 0.000000e+00
2.063492e-01 -9.047619e-01 0.000000e+00
2.380952e-01 -9.047619e-01 0.000000e+00
2.698413e-01 -9.047619e-01 0.000000e+00
3.015873e-01 -9.047619e-01 0.000000e+00
3.333333e-01 -9.047619e-01 0.000000e+00
3.650794e-01 -9.047619e-01 0.000000e+00
3.968254e-01 -9.047619e-01 0.000000e+00
4.285714e-01 -9.047619e-01 0.000000e+00
4.603175e-01 -9.047619e-01 0.000000e+00
4.920635e-01 -9.047619e-01 0.000000e+00
5.238095e-01 -9.047619e-01 0.000000e+00
5.555556e-01 -9.047619e-01 0.000000e+00
5.873016e-01 -9.047619e-01 0.000000e+00
6.190476e-01 -9.047619e-01 0.000000e+00
[...]
POINT_DATA 4096 
SCALARS concentration double 1 
LOOKUP_TABLE default 
1.329279e+00 
1.304204e+00 
1.279305e+00 
1.254650e+00 
1.230260e+00 
1.206150e+00 
1.182334e+00 
1.158827e+00 
1.135645e+00 
1.112806e+00 
1.090325e+00 
1.068224e+00 
1.046520e+00 
1.025235e+00 
1.004392e+00 
9.840131e-01 
9.641233e-01 
9.447487e-01 
9.259164e-01 
9.076552e-01 
8.899950e-01 
8.729669e-01 
8.566034e-01 
8.409380e-01 
8.260052e-01 
8.118402e-01 
7.984791e-01 
7.859585e-01 
7.743152e-01 
7.635859e-01 
7.538082e-01 
7.450192e-01 
7.372543e-01 
7.305444e-01 
7.249157e-01 
7.203951e-01 
7.170114e-01 
7.148002e-01 
7.138431e-01 
7.146101e-01 
7.170114e-01 
7.208494e-01 
7.259805e-01 
7.323113e-01 
7.397790e-01 
7.483341e-01 
7.579325e-01 
7.685316e-01 
7.800897e-01 
7.925654e-01 
8.059177e-01 
8.201064e-01 
8.350919e-01 
8.508360e-01 
8.673013e-01 
8.844518e-01 
9.022528e-01 
9.206710e-01 
9.396748e-01 
9.592341e-01 
9.793202e-01 
9.999057e-01 
1.020965e+00 
1.042482e+00 
1.309959e+00 
1.284565e+00 
1.259341e+00 
1.234353e+00 
1.209623e+00 
1.185165e+00 
1.160994e+00 
1.137126e+00 
1.113576e+00 
1.090360e+00 
1.067498e+00 
1.045007e+00 
1.022908e+00 
1.001223e+00 
9.799729e-01 
9.591830e-01 
9.388783e-01 
9.190857e-01 
8.998335e-01 
8.811516e-01 
8.630712e-01 
8.456251e-01 
8.288472e-01 
8.127729e-01 
7.974388e-01 
7.828824e-01 
7.691420e-01 
7.562568e-01 
7.442662e-01 
7.332104e-01 
7.231303e-01 
7.140654e-01 
7.060543e-01 
6.991307e-01 
6.933235e-01 
6.886624e-01 
6.851791e-01 
6.829129e-01 
6.819577e-01 
6.828175e-01 
6.853603e-01 
6.893712e-01 
6.947034e-01 
7.012651e-01 
7.089936e-01 
7.178382e-01 
7.277525e-01 
7.386911e-01 
7.506091e-01 
7.634621e-01 
7.772061e-01 
7.917981e-01 
8.071962e-01 
8.233596e-01 
8.402490e-01 
8.578264e-01 
8.760553e-01 
8.949012e-01 
9.143312e-01 
9.343140e-01 
9.548200e-01 
9.758211e-01 
9.972907e-01 
1.019212e+00 
1.291072e+00 
1.265354e+00 
1.239801e+00 
1.214478e+00 
1.189406e+00 
1.164598e+00 
1.140069e+00 
1.115835e+00 
1.091911e+00 
1.068315e+00 
1.045063e+00 
1.022177e+00 
9.996745e-01 
9.775789e-01 
9.559128e-01 
9.347009e-01 
9.139693e-01 
8.937458e-01 
8.740597e-01 
8.549422e-01 
8.364258e-01 
8.185448e-01 
8.013349e-01 
7.848334e-01 
7.690789e-01 
7.541113e-01 
7.399716e-01 
7.267015e-01 
7.143438e-01 
7.029423e-01 
6.925407e-01 
6.831818e-01 
6.749073e-01 
6.677542e-01 
6.617547e-01 
6.569421e-01 
6.533511e-01 
6.510252e-01 
6.500715e-01 
6.510297e-01 
6.537196e-01 
6.579102e-01 
6.634533e-01 
6.702584e-01 
6.782628e-01 
6.874140e-01 
6.976627e-01 
7.089599e-01 
7.212573e-01 
7.345070e-01 
7.486618e-01 
7.636757e-01 
7.795041e-01 
7.961037e-01 
8.134329e-01 
8.314518e-01 
8.501223e-01 
8.694083e-01 
8.892759e-01 
9.096927e-01 
9.306282e-01 
9.520534e-01 
9.739411e-01 
9.962737e-01 
1.272631e+00 
1.246589e+00 
1.220708e+00 
1.195048e+00 
1.169631e+00 
1.144471e+00 
1.119581e+00 
1.094978e+00 
1.070676e+00 
1.046693e+00 
1.023046e+00 
9.997564e-01 
9.768429e-01 
9.543282e-01 
9.322357e-01 
9.105908e-01 
8.894202e-01 
8.687526e-01 
8.486185e-01 
8.290500e-01 
8.100811e-01 
7.917477e-01 
7.740872e-01 
7.571390e-01 
7.409438e-01 
7.255440e-01 
7.109834e-01 
6.973066e-01 
6.845602e-01 
6.727917e-01 
6.620479e-01 
6.523752e-01 
6.438190e-01 
6.364202e-01 
6.302148e-01 
6.252396e-01 
6.215332e-01 
6.191431e-01 
6.181915e-01 
6.192537e-01 
6.220966e-01 
6.264749e-01 
6.322401e-01 
6.393034e-01 
6.476014e-01 
6.570789e-01 
6.676830e-01 
6.793607e-01 
6.920596e-01 
7.057280e-01 
7.203151e-01 
7.357718e-01 
7.520504e-01 
7.691051e-01 
7.868920e-01 
8.053690e-01 
8.244966e-01 
8.442373e-01 
8.645559e-01 
8.854190e-01 
9.067954e-01 
9.286551e-01 
9.509704e-01 
9.737227e-01 
1.254658e+00 
1.228293e+00 
1.202082e+00 
1.176085e+00 
1.150322e+00 
1.124807e+00 
1.099554e+00 
1.074578e+00 
1.049894e+00 
1.025519e+00 
1.001472e+00 
9.777717e-01 
9.544391e-01 
9.314963e-01 
9.089675e-01 
8.868784e-01 
8.652566e-01 
8.441316e-01 
8.235347e-01 
8.034994e-01 
7.840610e-01 
7.652569e-01 
7.471264e-01 
7.297108e-01 
7.130533e-01 
6.971989e-01 
6.821941e-01 
6.680872e-01 
6.549287e-01 
6.427698e-01 
6.316609e-01 
6.216527e-01 
6.127949e-01 
6.051326e-01 
5.987060e-01 
5.935562e-01 
5.897257e-01 
5.872665e-01 
5.863176e-01 
5.874897e-01 
5.904919e-01 
5.950667e-01 
6.010670e-01 
6.084053e-01 
6.170167e-01 
6.268425e-01 
6.378253e-01 
6.499075e-01 
6.630320e-01 
6.771430e-01 
6.921857e-01 
7.081075e-01 
7.248576e-01 
7.423875e-01 
7.606508e-01 
7.796036e-01 
7.992049e-01 
8.194159e-01 
8.402001e-01 
8.615229e-01 
8.833520e-01 
9.056570e-01 
9.284094e-01 
9.515897e-01 
1.237174e+00 
1.210487e+00 
1.183946e+00 
1.157612e+00 
1.131503e+00 
1.105631e+00 
1.080012e+00 
1.054659e+00 
1.029589e+00 
1.004819e+00 
9.803650e-01 
9.562480e-01 
9.324884e-01 
9.091089e-01 
8.861339e-01 
8.635897e-01 
8.415045e-01 
8.199085e-01 
7.988342e-01 
7.783159e-01 
7.583905e-01 
7.390968e-01 
7.204759e-01 
7.025713e-01 
6.854287e-01 
6.690956e-01 
6.536221e-01 
6.390599e-01 
6.254639e-01 
6.128891e-01 
6.013903e-01 
5.910229e-01 
5.818415e-01 
5.738959e-01 
5.672313e-01 
5.618935e-01 
5.579293e-01 
5.553958e-01 
5.544500e-01 
5.557380e-01 
5.589060e-01 
5.636875e-01 
5.699378e-01 
5.775702e-01 
5.865172e-01 
5.967157e-01 
6.081028e-01 
6.206156e-01 
6.341920e-01 
6.487712e-01 
6.642944e-01 
6.807050e-01 
6.979491e-01 
7.159752e-01 
7.347348e-01 
7.541822e-01 
7.742747e-01 
7.949718e-01 
8.162357e-01 
8.380310e-01 
8.603243e-01 
8.830846e-01 
9.062829e-01 
9.298989e-01 
1.220199e+00 
1.193187e+00 
1.166318e+00 
1.139646e+00 
1.113189e+00 
1.086961e+00 
1.060974e+00 
1.035243e+00 
1.009783e+00 
9.846117e-01 
9.597464e-01 
9.352064e-01 
9.110127e-01 
8.871883e-01 
8.637579e-01 
8.407481e-01 
8.181877e-01 
7.961077e-01 
7.745413e-01 
7.535241e-01 
7.330940e-01 
7.132915e-01 
6.941595e-01 
6.757437e-01 
6.580921e-01 
6.412554e-01 
6.252870e-01 
6.102429e-01 
5.961821e-01 
5.831641e-01 
5.712487e-01 
5.604964e-01 
5.509673e-01 
5.427167e-01 
5.357955e-01 
5.302548e-01 
5.261465e-01 
5.235327e-01 
5.225902e-01 
5.239995e-01 
5.273401e-01 
5.323398e-01 
5.388573e-01 
5.468054e-01 
5.561130e-01 
5.667112e-01 
5.785307e-01 
5.915028e-01 
6.055594e-01 
6.206344e-01 
6.366646e-01 
6.535893e-01 
6.713511e-01 
6.898957e-01 
7.091726e-01 
7.291340e-01 
7.497351e-01 
7.709341e-01 
7.926918e-01 
8.149718e-01 
8.377402e-01 
8.609653e-01 
8.846178e-01 
9.086764e-01 
1.203729e+00 
1.176390e+00 
1.149193e+00 
1.122185e+00 
1.095381e+00 
1.068795e+00 
1.042439e+00 
1.016329e+00 
9.904779e-01 
9.649033e-01 
9.396226e-01 
9.146552e-01 
8.900221e-01 
8.657463e-01 
8.418527e-01 
8.183683e-01 
7.953225e-01 
7.727467e-01 
7.506749e-01 
7.291436e-01 
7.081921e-01 
6.878622e-01 
6.681987e-01 
6.492494e-01 
6.310648e-01 
6.136989e-01 
5.972085e-01 
5.816546e-01 
5.671004e-01 
5.536101e-01 
5.412493e-01 
5.300845e-01 
5.201815e-01 
5.116020e-01 
5.044036e-01 
4.986437e-01 
4.943795e-01 
4.916791e-01 
4.907405e-01 
4.922768e-01 
4.957976e-01 
5.010294e-01 
5.078338e-01 
5.161225e-01 
5.258187e-01 
5.368465e-01 
5.491296e-01 
5.625920e-01 
5.771594e-01 
5.927600e-01 
6.093254e-01 
6.267908e-01 
6.450953e-01 
6.641820e-01 
6.839977e-01 
7.044926e-01 
7.256198e-01 
7.473360e-01 
7.696010e-01 
7.923777e-01 
8.156315e-01 
8.393304e-01 
8.634445e-01 
8.879520e-01 
1.187723e+00 
1.160075e+00 
1.132556e+00 
1.105216e+00 
1.078069e+00 
1.051129e+00 
1.024409e+00 
9.979209e-01 
9.716805e-01 
9.457036e-01 
9.200078e-01 
8.946122e-01 
8.695378e-01 
8.448075e-01 
8.204463e-01 
7.964815e-01 
7.729426e-01 
7.498616e-01 
7.272732e-01 
7.052146e-01 
6.837262e-01 
6.628513e-01 
6.426365e-01 
6.231316e-01 
6.043900e-01 
5.864686e-01 
5.694282e-01 
5.533346e-01 
5.382558e-01 
5.242615e-01 
5.114236e-01 
4.998153e-01 
4.895094e-01 
4.805749e-01 
4.730769e-01 
4.670796e-01 
4.626465e-01 
4.598518e-01 
4.589154e-01 
4.605718e-01 
4.642781e-01 
4.697568e-01 
4.768707e-01 
4.855275e-01 
4.956435e-01 
5.071342e-01 
5.199150e-01 
5.339020e-01 
5.490136e-01 
5.651719e-01 
5.823029e-01 
6.003377e-01 
6.192118e-01 
6.388652e-01 
6.592422e-01 
6.802904e-01 
7.019616e-01 
7.242109e-01 
7.469974e-01 
7.702831e-01 
7.940331e-01 
8.182148e-01 
8.427983e-01 
8.677617e-01 
1.172365e+00 
1.144402e+00 
1.116563e+00 
1.088890e+00 
1.061400e+00 
1.034105e+00 
1.007017e+00 
9.801487e-01 
9.535148e-01 
9.271309e-01 
9.010142e-01 
8.751837e-01 
8.496601e-01 
8.244663e-01 
7.996272e-01 
7.751702e-01 
7.511250e-01 
7.275238e-01 
7.044018e-01 
6.817970e-01 
6.597507e-01 
6.383075e-01 
6.175156e-01 
5.974272e-01 
5.780982e-01 
5.595888e-01 
5.419640e-01 
5.252944e-01 
5.096530e-01 
4.951162e-01 
4.817627e-01 
4.696736e-01 
4.589303e-01 
4.496101e-01 
4.417862e-01 
4.355307e-01 
4.309146e-01 
4.280189e-01 
4.270882e-01 
4.288846e-01 
4.327915e-01 
4.385380e-01 
4.459890e-01 
4.550471e-01 
4.656192e-01 
4.776108e-01 
4.909275e-01 
5.054765e-01 
5.211685e-01 
5.379186e-01 
5.556473e-01 
5.742810e-01 
5.937514e-01 
6.139953e-01 
6.349542e-01 
6.565742e-01 
6.788052e-01 
7.016018e-01 
7.249219e-01 
7.487271e-01 
7.729819e-01 
7.976535e-01 
8.227120e-01 
8.481352e-01 
1.157596e+00 
1.129323e+00 
1.101165e+00 
1.073163e+00 
1.045332e+00 
1.017684e+00 
9.902300e-01 
9.629824e-01 
9.359554e-01 
9.091641e-01 
8.826254e-01 
8.563579e-01 
8.303820e-01 
8.047204e-01 
7.793979e-01 
7.544417e-01 
7.298814e-01 
7.057494e-01 
6.820811e-01 
6.589151e-01 
6.362935e-01 
6.142620e-01 
5.928704e-01 
5.721730e-01 
5.522284e-01 
5.331001e-01 
5.148572e-01 
4.975752e-01 
4.813330e-01 
4.662137e-01 
4.523041e-01 
4.396939e-01 
4.284741e-01 
4.187316e-01 
4.105499e-01 
4.040106e-01 
3.991929e-01 
3.961857e-01 
3.952600e-01 
3.972040e-01 
4.013236e-01 
4.073597e-01 
4.151786e-01 
4.246746e-01 
4.357427e-01 
4.482765e-01 
4.621704e-01 
4.773217e-01 
4.936323e-01 
5.110102e-01 
5.293704e-01 
5.486342e-01 
5.687293e-01 
5.895891e-01 
6.111526e-01 
6.333639e-01 
6.561721e-01 
6.795303e-01 
7.033961e-01 
7.277304e-01 
7.524976e-01 
7.776651e-01 
8.032029e-01 
8.290887e-01 
1.143435e+00 
1.114858e+00 
1.086386e+00 
1.058059e+00 
1.029892e+00 
1.001894e+00 
9.740765e-01 
9.464519e-01 
9.190332e-01 
8.918354e-01 
8.648747e-01 
8.381693e-01 
8.117395e-01 
7.856073e-01 
7.597973e-01 
7.343361e-01 
7.092533e-01 
6.845811e-01 
6.603550e-01 
6.366139e-01 
6.134003e-01 
5.907610e-01 
5.687474e-01 
5.474153e-01 
5.268262e-01 
5.070467e-01 
4.881500e-01 
4.702167e-01 
4.533319e-01 
4.375863e-01 
4.230755e-01 
4.098992e-01 
3.981592e-01 
3.879542e-01 
3.793795e-01 
3.725280e-01 
3.674888e-01 
3.643594e-01 
3.634391e-01 
3.655374e-01 
3.698840e-01 
3.762365e-01 
3.844596e-01 
3.944357e-01 
4.060453e-01 
4.191678e-01 
4.336847e-01 
4.494823e-01 
4.664531e-01 
4.844980e-01 
5.035259e-01 
5.234530e-01 
5.442026e-01 
5.657049e-01 
5.878962e-01 
6.107190e-01 
6.341210e-01 
6.580548e-01 
6.824773e-01 
7.073495e-01 
7.326358e-01 
7.583038e-01 
7.843240e-01 
8.106741e-01 
1.129903e+00 
1.101027e+00 
1.072247e+00 
1.043602e+00 
1.015103e+00 
9.867603e-01 
9.585844e-01 
9.305867e-01 
9.027800e-01 
8.751785e-01 
8.477980e-01 
8.206560e-01 
7.937723e-01 
7.671683e-01 
7.408679e-01 
7.148976e-01 
6.892864e-01 
6.640661e-01 
6.392720e-01 
6.149430e-01 
5.911221e-01 
5.678566e-01 
5.451989e-01 
5.232067e-01 
5.019436e-01 
4.814793e-01 
4.618912e-01 
4.432647e-01 
4.256919e-01 
4.092716e-01 
3.941092e-01 
3.803159e-01 
3.680060e-01 
3.572922e-01 
3.482838e-01 
3.410875e-01 
3.358036e-01 
3.325399e-01 
3.316251e-01 
3.338838e-01 
3.384755e-01 
3.451765e-01 
3.538463e-01 
3.643514e-01 
3.765543e-01 
3.903177e-01 
4.055085e-01 
4.220006e-01 
4.396771e-01 
4.584309e-01 
4.781645e-01 
4.987886e-01 
5.202224e-01 
5.423928e-01 
5.652340e-01 
5.886870e-01 
6.126983e-01 
6.372201e-01 
6.622092e-01 
6.876267e-01 
7.134373e-01 
7.396092e-01 
7.661136e-01 
7.929284e-01 
1.117021e+00 
1.087853e+00 
1.058773e+00 
1.029816e+00 
1.000992e+00 
9.723114e-01 
9.437831e-01 
9.154183e-01 
8.872289e-01 
8.592286e-01 
8.314323e-01 
8.038571e-01 
7.765217e-01 
7.494470e-01 
7.226561e-01 
6.961747e-01 
6.700309e-01 
6.442563e-01 
6.188857e-01 
5.939577e-01 
5.695152e-01 
5.456060e-01 
5.222831e-01 
4.996055e-01 
4.776387e-01 
4.564552e-01 
4.361359e-01 
4.167718e-01 
3.984618e-01 
3.813136e-01 
3.654437e-01 
3.509758e-01 
3.380393e-01 
3.267630e-01 
3.172738e-01 
3.096946e-01 
3.041392e-01 
3.007272e-01 
2.998181e-01 
3.022433e-01 
3.071017e-01 
3.141896e-01 
3.233563e-01 
3.344470e-01 
3.473023e-01 
3.617653e-01 
3.776864e-01 
3.949261e-01 
4.133573e-01 
4.328643e-01 
4.533426e-01 
4.746977e-01 
4.968448e-01 
5.197082e-01 
5.432201e-01 
5.673202e-01 
5.919545e-01 
6.170750e-01 
6.426387e-01 
6.686070e-01 
6.949454e-01 
7.216228e-01 
7.486113e-01 
7.758893e-01 
1.104809e+00 
1.075358e+00 
1.045986e+00 
1.016725e+00 
9.875846e-01 
9.585736e-01 
9.297008e-01 
9.009764e-01 
8.724116e-01 
8.440192e-01 
8.158134e-01 
7.878104e-01 
7.600279e-01 
7.324859e-01 
7.052065e-01 
6.782144e-01 
6.515369e-01 
6.252047e-01 
5.992516e-01 
5.737157e-01 
5.486396e-01 
5.240710e-01 
5.000631e-01 
4.766758e-01 
4.539758e-01 
4.320379e-01 
4.109468e-01 
3.907981e-01 
3.716982e-01 
3.537643e-01 
3.371245e-01 
3.219172e-01 
3.082890e-01 
2.963885e-01 
2.863636e-01 
2.783568e-01 
2.724987e-01 
2.689223e-01 
2.680187e-01 
2.706171e-01 
2.757681e-01 
2.832892e-01 
2.930123e-01 
3.047546e-01 
3.183299e-01 
3.335585e-01 
3.502724e-01 
3.683179e-01 
3.875561e-01 
4.078625e-01 
4.291253e-01 
4.512453e-01 
4.741343e-01 
4.977141e-01 
5.219157e-01 
5.466779e-01 
5.719467e-01 
5.976742e-01 
6.238179e-01 
6.503402e-01 
6.772075e-01 
7.043897e-01 
7.318599e-01 
7.595976e-01 
1.093273e+00 
1.063549e+00 
1.033896e+00 
1.004341e+00 
9.748949e-01 
9.455639e-01 
9.163567e-01 
8.872826e-01 
8.583521e-01 
8.295770e-01 
8.009707e-01 
7.725482e-01 
7.443262e-01 
7.163235e-01 
6.885612e-01 
6.610625e-01 
6.338538e-01 
6.069642e-01 
5.804266e-01 
5.542780e-01 
5.285599e-01 
5.033194e-01 
4.786095e-01 
4.544899e-01 
4.310283e-01 
4.083015e-01 
3.863969e-01 
3.654150e-01 
3.454692e-01 
3.266864e-01 
3.092076e-01 
2.931877e-01 
2.787934e-01 
2.661971e-01 
2.555720e-01 
2.470852e-01 
2.408872e-01 
2.371279e-01 
2.362291e-01 
2.390061e-01 
2.444809e-01 
2.524915e-01 
2.628419e-01 
2.753129e-01 
2.896859e-01 
3.057548e-01 
3.233311e-01 
3.422453e-01 
3.623461e-01 
3.834994e-01 
4.055872e-01 
4.285056e-01 
4.521637e-01 
4.764816e-01 
5.013895e-01 
5.268261e-01 
5.527379e-01 
5.790778e-01 
6.058043e-01 
6.328809e-01 
6.602754e-01 
6.879589e-01 
7.159062e-01 
7.440973e-01 
1.082420e+00 
1.052437e+00 
1.022515e+00 
9.926797e-01 
9.629396e-01 
9.333016e-01 
9.037731e-01 
8.743625e-01 
8.450793e-01 
8.159344e-01 
7.869400e-01 
7.581100e-01 
7.294599e-01 
7.010070e-01 
6.727711e-01 
6.447740e-01 
6.170403e-01 
5.895978e-01 
5.624776e-01 
5.357152e-01 
5.093505e-01 
4.834293e-01 
4.580033e-01 
4.331317e-01 
4.088824e-01 
3.853330e-01 
3.625734e-01 
3.407080e-01 
3.198571e-01 
3.001573e-01 
2.817632e-01 
2.648482e-01 
2.496024e-01 
2.362264e-01 
2.249245e-01 
2.158945e-01 
2.093117e-01 
2.053471e-01 
2.044509e-01 
2.074078e-01 
2.132440e-01 
2.218130e-01 
2.328757e-01 
2.461664e-01 
2.614269e-01 
2.784207e-01 
2.969367e-01 
3.167877e-01 
3.378096e-01 
3.598591e-01 
3.828122e-01 
4.065614e-01 
4.310138e-01 
4.560889e-01 
4.817168e-01 
5.078372e-01 
5.343974e-01 
5.613519e-01 
5.886608e-01 
6.162891e-01 
6.442063e-01 
6.723853e-01 
7.008025e-01 
7.294392e-01 
1.072368e+00 
1.042136e+00 
1.011955e+00 
9.818491e-01 
9.518260e-01 
9.218915e-01 
8.920524e-01 
8.623161e-01 
8.326913e-01 
8.031876e-01 
7.738162e-01 
7.445896e-01 
7.155220e-01 
6.866293e-01 
6.579294e-01 
6.294426e-01 
6.011916e-01 
5.732021e-01 
5.455031e-01 
5.181277e-01 
4.911138e-01 
4.645046e-01 
4.383500e-01 
4.127077e-01 
3.876444e-01 
3.632381e-01 
3.395800e-01 
3.167774e-01 
2.949565e-01 
2.742635e-01 
2.548673e-01 
2.369613e-01 
2.207625e-01 
2.065054e-01 
1.944334e-01 
1.847831e-01 
1.777614e-01 
1.735662e-01 
1.726735e-01 
1.758270e-01 
1.820733e-01 
1.912886e-01 
2.031683e-01 
2.173867e-01 
2.336385e-01 
2.516529e-01 
2.711926e-01 
2.920519e-01 
3.140539e-01 
3.370472e-01 
3.609029e-01 
3.855111e-01 
4.107782e-01 
4.366242e-01 
4.629803e-01 
4.897880e-01 
5.169966e-01 
5.445626e-01 
5.724481e-01 
6.006205e-01 
6.290512e-01 
6.577153e-01 
6.865909e-01 
7.156607e-01 
1.063098e+00 
1.032629e+00 
1.002202e+00 
9.718396e-01 
9.415473e-01 
9.113308e-01 
8.811958e-01 
8.511490e-01 
8.211979e-01 
7.913511e-01 
7.616184e-01 
7.320110e-01 
7.025416e-01 
6.732245e-01 
6.440758e-01 
6.151137e-01 
5.863587e-01 
5.578339e-01 
5.295659e-01 
5.015846e-01 
4.739248e-01 
4.466269e-01 
4.197376e-01 
3.933121e-01 
3.674151e-01 
3.421234e-01 
3.175281e-01 
2.937381e-01 
2.708835e-01 
2.491192e-01 
2.286278e-01 
2.096241e-01 
1.923554e-01 
1.770966e-01 
1.641407e-01 
1.537753e-01 
1.462479e-01 
1.417912e-01 
1.409004e-01 
1.442613e-01 
1.509769e-01 
1.609484e-01 
1.737727e-01 
1.890476e-01 
2.064122e-01 
2.255551e-01 
2.462104e-01 
2.681534e-01 
2.911952e-01 
3.151781e-01 
3.399700e-01 
3.654607e-01 
3.915573e-01 
4.181820e-01 
4.452686e-01 
4.727613e-01 
5.006123e-01 
5.287811e-01 
5.572326e-01 
5.859367e-01 
6.148674e-01 
6.440022e-01 
6.733212e-01 
7.028082e-01 
1.054618e+00 
1.023927e+00 
9.932696e-01 
9.626655e-01 
9.321205e-01 
9.016389e-01 
8.712256e-01 
8.408863e-01 
8.106275e-01 
7.804567e-01 
7.503822e-01 
7.204139e-01 
6.905628e-01 
6.608415e-01 
6.312641e-01 
6.018465e-01 
5.726065e-01 
5.435645e-01 
5.147434e-01 
4.861698e-01 
4.578746e-01 
4.298943e-01 
4.022718e-01 
3.750584e-01 
3.483157e-01 
3.221174e-01 
2.965528e-01 
2.717299e-01 
2.477804e-01 
2.248649e-01 
2.031787e-01 
1.829575e-01 
1.644819e-01 
1.480755e-01 
1.340948e-01 
1.228963e-01 
1.147795e-01 
1.100245e-01 
1.091336e-01 
1.127137e-01 
1.199743e-01 
1.308439e-01 
1.447719e-01 
1.612590e-01 
1.798776e-01 
2.002694e-01 
2.221380e-01 
2.452407e-01 
2.693794e-01 
2.943925e-01 
3.201477e-01 
3.465368e-01 
3.734701e-01 
4.008736e-01 
4.286853e-01 
4.568534e-01 
4.853342e-01 
5.140906e-01 
5.430912e-01 
5.723090e-01 
6.017208e-01 
6.313066e-01 
6.610490e-01 
6.909333e-01 
1.046954e+00 
1.016057e+00 
9.851853e-01 
9.543570e-01 
9.235770e-01 
8.928489e-01 
8.621768e-01 
8.315652e-01 
8.010198e-01 
7.705466e-01 
7.401528e-01 
7.098468e-01 
6.796379e-01 
6.495367e-01 
6.195553e-01 
5.897069e-01 
5.600065e-01 
5.304708e-01 
5.011192e-01 
4.719740e-01 
4.430617e-01 
4.144142e-01 
3.860696e-01 
3.580743e-01 
3.304848e-01 
3.033700e-01 
2.768145e-01 
2.509224e-01 
2.258231e-01 
2.016788e-01 
1.786931e-01 
1.571208e-01 
1.372773e-01 
1.195435e-01 
1.043593e-01 
9.217729e-02 
8.336468e-02 
7.826679e-02 
7.737308e-02 
8.118585e-02 
8.908942e-02 
1.010472e-01 
1.162795e-01 
1.341677e-01 
1.542030e-01 
1.759746e-01 
1.991565e-01 
2.234915e-01 
2.487767e-01 
2.748510e-01 
3.015860e-01 
3.288785e-01 
3.566450e-01 
3.848171e-01 
4.133388e-01 
4.421639e-01 
4.712533e-01 
5.005747e-01 
5.301005e-01 
5.598073e-01 
5.896753e-01 
6.196872e-01 
6.498284e-01 
6.800860e-01 
1.040127e+00 
1.009042e+00 
9.779737e-01 
9.469398e-01 
9.159444e-01 
8.849904e-01 
8.540810e-01 
8.232198e-01 
7.924113e-01 
7.616605e-01 
7.309732e-01 
7.003562e-01 
6.698173e-01 
6.393650e-01 
6.090091e-01 
5.787600e-01 
5.486295e-01 
5.186306e-01 
4.887785e-01 
4.590911e-01 
4.295901e-01 
4.003019e-01 
3.712592e-01 
3.425021e-01 
3.140804e-01 
2.860554e-01 
2.585039e-01 
2.315216e-01 
2.052306e-01 
1.797878e-01 
1.553981e-01 
1.323289e-01 
1.109284e-01 
9.164304e-02 
7.502326e-02 
6.166185e-02 
5.201442e-02 
4.651883e-02 
4.561879e-02 
4.967951e-02 
5.835572e-02 
7.166480e-02 
8.845734e-02 
1.079763e-01 
1.296133e-01 
1.529025e-01 
1.774938e-01 
2.031232e-01 
2.295904e-01 
2.567414e-01 
2.844565e-01 
3.126420e-01 
3.412233e-01 
3.701405e-01 
3.993451e-01 
4.287972e-01 
4.584641e-01 
4.883184e-01 
5.183373e-01 
5.485014e-01 
5.787942e-01 
6.092017e-01 
6.397117e-01 
6.703136e-01 
1.034156e+00 
1.002904e+00 
9.716579e-01 
9.404386e-01 
9.092491e-01 
8.780917e-01 
8.469686e-01 
8.158828e-01 
7.848375e-01 
7.538366e-01 
7.228848e-01 
6.919874e-01 
6.611503e-01 
6.303801e-01 
5.996842e-01 