# vtk DataFile Version 2.0 
Quadtree Mesh 
ASCII 
DATASET UNSTRUCTURED_GRID 
POINTS 4096 double 
-1.000000e+00 -1.000000e+00 0.000000e+00
-9.682540e-01 -1.000000e+00 0.000000e+00
-9.365079e-01 -1.000000e+00 0.000000e+00
-9.047619e-01 -1.000000e+00 0.000000e+00
-8.730159e-01 -1.000000e+00 0.000000e+00
-8.412698e-01 -1.000000e+00 0.000000e+00
-8.095238e-01 -1.000000e+00 0.000000e+00
-7.777778e-01 -1.000000e+00 0.000000e+00
-7.460317e-01 -1.000000e+00 0.000000e+00
-7.142857e-01 -1.000000e+00 0.000000e+00
-6.825397e-01 -1.000000e+00 0.000000e+00
-6.507937e-01 -1.000000e+00 0.000000e+00
-6.190476e-01 -1.000000e+00 0.000000e+00
-5.873016e-01 -1.000000e+00 0.000000e+00
-5.555556e-01 -1.000000e+00 0.000000e+00
-5.238095e-01 -1.000000e+00 0.000000e+00
-4.920635e-01 -1.000000e+00 0.000000e+00
-4.603175e-01 -1.000000e+00 0.000000e+00
-4.285714e-01 -1.000000e+00 0.000000e+00
-3.968254e-01 -1.000000e+00 0.000000e+00
-3.650794e-01 -1.000000e+00 0.000000e+00
-3.333333e-01 -1.000000e+00 0.000000e+00
-3.015873e-01 -1.000000e+00 0.000000e+00
-2.698413e-01 -1.000000e+00 0.000000e+00
-2.380952e-01 -1.000000e+00 0.000000e+00
-2.063492e-01 -1.000000e+00 0.000000e+00
-1.746032e-01 -1.000000e+00 0.000000e+00
-1.428571e-01 -1.000000e+00 0.000000e+00
-1.111111e-01 -1.000000e+00 0.000000e+00
-7.936508e-02 -1.000000e+00 0.000000e+00
-4.761905e-02 -1.000000e+00 0.000000e+00
-1.587302e-02 -1.000000e+00 0.000000e+00
1.587302e-02 -1.000000e+00 0.000000e+00
4.761905e-02 -1.000000e+00 0.000000e+00
7.936508e-02 -1.000000e+00 0.000000e+00
1.111111e-01 -1.000000e+00 0.000000e+00
1.428571e-01 -1.000000e+00 0.000000e+00
1.746032e-01 -1.000000e+00 0.000000e+00
2.063492e-01 -1.000000e+00 0.000000e+00
2.380952e-01 -1.000000e+00 0.000000e+00
2.698413e-01 -1.000000e+00 0.000000e+00
3.015873e-01 -1.000000e+00 0.000000e+00
3.333333e-01 -1.000000e+00 0.000000e+00
3.650794e-01 -1.000000e+00 0.000000e+00
3.968254e-01 -1.000000e+00 0.000000e+00
4.285714e-01 -1.000000e+00 0.000000e+00
4.603175e-01 -1.000000e+00 0.000000e+00
4.920635e-01 -1.000000e+00 0.000000e+00
5.238095e-01 -1.000000e+00 0.000000e+00
5.555556e-01 -1.000000e+00 0.000000e+00
5.873016e-01 -1.000000e+00 0.000000e+00
6.190476e-01 -1.000000e+00 0.000000e+00
6.507937e-01 -1.000000e+00 0.000000e+00
6.825397e-01 -1.000000e+00 0.000000e+00
7.142857e-01 -1.000000e+00 0.000000e+00
7.460317e-01 -1.000000e+00 0.000000e+00
7.777778e-01 -1.000000e+00 0.000000e+00
8.095238e-01 -1.000000e+00 0.000000e+00
8.412698e-01 -1.000000e+00 0.000000e+00
8.730159e-01 -1.000000e+00 0.000000e+00
9.047619e-01 -1.000000e+00 0.000000e+00
9.365079e-01 -1.000000e+00 0.000000e+00
9.682540e-01 -1.000000e+00 0.000000e+00
1.000000e+00 -1.000000e+00 0.000000e+00
-1.000000e+00 -9.682540e-01 0.000000e+00
-9.682540e-01 -9.682540e-01 0.000000e+00
-9.365079e-01 -9.682540e-01 0.000000e+00
-9.047619e-01 -9.682540e-01 0.000000e+00
-8.730159e-01 -9.682540e-01 0.000000e+00
-8.412698e-01 -9.682540e-01 0.000000e+00
-8.095238e-01 -9.682540e-01 0.000000e+00
-7.777778e-01 -9.682540e-01 0.000000e+00
-7.460317e-01 -9.682540e-01 0.000000e+00
-7.142857e-01 -9.682540e-01 0.000000e+00
-6.825397e-01 -9.682540e-01 0.000000e+00
-6.507937e-01 -9.682540e-01 0.000000e+00
-6.190476e-01 -9.682540e-01 0.000000e+00
-5.873016e-01 -9.682540e-01 0.000000e+00
-5.555556e-01 -9.682540e-01 0.000000e+00
-5.238095e-01 -9.682540e-01 0.000000e+00
-4.920635e-01 -9.682540e-01 0.000000e+00
-4.603175e-01 -9.682540e-01 0.000000e+00
-4.285714e-01 -9.682540e-01 0.000000e+00
-3.968254e-01 -9.682540e-01 0.000000e+00
-3.650794e-01 -9.682540e-01 0.000000e+00
-3.333333e-01 -9.682540e-01 0.000000e+00
-3.015873e-01 -9.682540e-01 0.000000e+00
-2.698413e-01 -9.682540e-01 0.000000e+00
-2.380952e-01 -9.682540e-01 0.000000e+00
-2.063492e-01 -9.682540e-01 0.000000e+00
-1.746032e-01 -9.682540e-01 0.000000e+00
-1.428571e-01 -9.682540e-01 0.000000e+00
-1.111111e-01 -9.682540e-01 0.000000e+00
-7.936508e-02 -9.682540e-01 0.000000e+00
-4.761905e-02 -9.682540e-01 0.000000e+00
-1.587302e-02 -9.682540e-01 0.000000e+00
1.587302e-02 -9.682540e-01 0.000000e+00
4.761905e-02 -9.682540e-01 0.000000e+00
7.936508e-02 -9.682540e-01 0.000000e+00
1.111111e-01 -9.682540e-01 0.000000e+00
1.428571e-01 -9.682540e-01 0.000000e+00
1.746032e-01 -9.682540e-01 0.000000e+00
2.063492e-01 -9.682540e-01 0.000000e+00
2.380952e-01 -9.682540e-01 0.000000e+00
2.698413e-01 -9.682540e-01 0.000000e+00
3.015873e-01 -9.682540e-01 0.000000e+00
3.333333e-01 -9.682540e-01 0.000000e+00
3.650794e-01 -9.682540e-01 0.000000e+00
3.968254e-01 -9.682540e-01 0.000000e+00
4.285714e-01 -9.682540e-01 0.000000e+00
4.603175e-01 -9.682540e-01 0.000000e+00
4.920635e-01 -9.682540e-01 0.000000e+00
5.238095e-01 -9.682540e-01 0.000000e+00
5.555556e-01 -9.682540e-01 0.000000e+00
5.873016e-01 -9.682540e-01 0.000000e+00
6.190476e-01 -9.682540e-01 0.000000e+00
6.507937e-01 -9.682540e-01 0.000000e+00
6.825397e-01 -9.682540e-01 0.000000e+00
7.142857e-01 -9.682540e-01 0.000000e+00
7.460317e-01 -9.682540e-01 0.000000e+00
7.777778e-01 -9.682540e-01 0.000000e+00
8.095238e-01 -9.682540e-01 0.000000e+00
8.412698e-01 -9.682540e-01 0.000000e+00
8.730159e-01 -9.682540e-01 0.000000e+00
9.047619e-01 -9.682540e-01 0.000000e+00
9.365079e-01 -9.682540e-01 0.000000e+00
9.682540e-01 -9.682540e-01 0.000000e+00
1.000000e+00 -9.682540e-01 0.000000e+00
-1.000000e+00 -9.365079e-01 0.000000e+00
-9.682540e-01 -9.365079e-01 0.000000e+00
-9.365079e-01 -9.365079e-01 0.000000e+00
-9.047619e-01 -9.365079e-01 0.000000e+00
-8.730159e-01 -9.365079e-01 0.000000e+00
-8.412698e-01 -9.365079e-01 0.000000e+00
-8.095238e-01 -9.365079e-01 0.000000e+00
-7.777778e-01 -9.365079e-01 0.000000e+00
-7.460317e-01 -9.365079e-01 0.000000e+00
-7.142857e-01 -9.365079e-01 0.000000e+00
-6.825397e-01 -9.365079e-01 0.000000e+00
-6.507937e-01 -9.365079e-01 0.000000e+00
-6.190476e-01 -9.365079e-01 0.000000e+00
-5.873016e-01 -9.365079e-01 0.000000e+00
-5.555556e-01 -9.365079e-01 0.000000e+00
-5.238095e-01 -9.365079e-01 0.000000e+00
-4.920635e-01 -9.365079e-01 0.000000e+00
-4.603175e-01 -9.365079e-01 0.000000e+00
-4.285714e-01 -9.365079e-01 0.000000e+00
-3.968254e-01 -9.365079e-01 0.000000e+00
-3.650794e-01 -9.365079e-01 0.000000e+00
-3.333333e-01 -9.365079e-01 0.000000e+00
-3.015873e-01 -9.365079e-01 0.000000e+00
-2.698413e-01 -9.365079e-01 0.000000e+00
-2.380952e-01 -9.365079e-01 0.000000e+00
-2.063492e-01 -9.365079e-01 0.000000e+00
-1.746032e-01 -9.365079e-01 0.000000e+00
-1.428571e-01 -9.365079e-01 0.000000e+00
-1.111111e-01 -9.365079e-01 0.000000e+00
-7.936508e-02 -9.365079e-01 0.000000e+00
-4.761905e-02 -9.365079e-01 0.000000e+00
-1.587302e-02 -9.365079e-01 0.000000e+00
1.587302e-02 -9.365079e-01 0.000000e+00
4.761905e-02 -9.365079e-01 0.000000e+00
7.936508e-02 -9.365079e-01 0.000000e+00
1.111111e-01 -9.365079e-01 0.000000e+00
1.428571e-01 -9.365079e-01 0.000000e+00
1.746032e-01 -9.365079e-01 0.000000e+00
2.063492e-01 -9.365079e-01 0.000000e+00
2.380952e-01 -9.365079e-01 0.000000e+00
2.698413e-01 -9.365079e-01 0.000000e+00
3.015873e-01 -9.365079e-01 0.000000e+00
3.333333e-01 -9.365079e-01 0.000000e+00
3.650794e-01 -9.365079e-01 0.000000e+00
3.968254e-01 -9.365079e-01 0.000000e+00
4.285714e-01 -9.365079e-01 0.000000e+00
4.603175e-01 -9.365079e-01 0.000000e+00
4.920635e-01 -9.365079e-01 0.000000e+00
5.238095e-01 -9.365079e-01 0.000000e+00
5.555556e-01 -9.365079e-01 0.000000e+00
5.873016e-01 -9.365079e-01 0.000000e+00
6.190476e-01 -9.365079e-01 0.000000e+00
6.507937e-01 -9.365079e-01 0.000000e+00
6.825397e-01 -9.365079e-01 0.000000e+00
7.142857e-01 -9.365079e-01 0.000000e+00
7.460317e-01 -9.365079e-01 0.000000e+00
7.777778e-01 -9.365079e-01 0.000000e+00
8.095238e-01 -9.365079e-01 0.000000e+00
8.412698e-01 -9.365079e-01 0.000000e+00
8.730159e-01 -9.365079e-01 0.000000e+00
9.047619e-01 -9.365079e-01 0.000000e+00
9.365079e-01 -9.365079e-01 0.000000e+00
9.682540e-01 -9.365079e-01 0.000000e+00
1.000000e+00 -9.365079e-01 0.000000e+00
-1.000000e+00 -9.047619e-01 0.000000e+00
-9.682540e-01 -9.047619e-01 0.000000e+00
-9.365079e-01 -9.047619e-01 0.000000e+00
-9.047619e-01 -9.047619e-01 0.000000e+00
-8.730159e-01 -9.047619e-01 0.000000e+00
-8.412698e-01 -9.047619e-01 0.000000e+00
-8.095238e-01 -9.047619e-01 0.000000e+00
-7.777778e-01 -9.047619e-01 0.000000e+00
-7.460317e-01 -9.047619e-01 0.000000e+00
-7.142857e-01 -9.047619e-01 0.000000e+00
-6.825397e-01 -9.047619e-01 0.000000e+00
-6.507937e-01 -9.047619e-01 0.000000e+00
-6.190476e-01 -9.047619e-01 0.000000e+00
-5.873016e-01 -9.047619e-01 0.000000e+00
-5.555556e-01 -9.047619e-01 0.000000e+00
-5.238095e-01 -9.047619e-01 0.000000e+00
-4.920635e-01 -9.047619e-01 0.000000e+00
-4.603175e-01 -9.047619e-01 0.000000e+00
-4.285714e-01 -9.047619e-01 0.000000e+00
-3.968254e-01 -9.047619e-01 0.000000e+00
-3.650794e-01 -9.047619e-01 0.000000e+00
-3.333333e-01 -9.047619e-01 0.000000e+00
-3.015873e-01 -9.047619e-01 0.000000e+00
-2.698413e-01 -9.047619e-01 0.000000e+00
-2.380952e-01 -9.047619e-01 0.000000e+00
-2.063492e-01 -9.047619e-01 0.000000e+00
-1.746032e-01 -9.047619e-01 0.000000e+00
-1.428571e-01 -9.047619e-01 0.000000e+00
-1.111111e-01 -9.047619e-01 0.000000e+00
-7.936508e-02 -9.047619e-01 0.000000e+00
-4.761905e-02 -9.047619e-01 0.000000e+00
-1.587302e-02 -9.047619e-01 0.000000e+00
1.587302e-02 -9.047619e-01 0.000000e+00
4.761905e-02 -9.047619e-01 0.000000e+00
7.936508e-02 -9.047619e-01 0.000000e+00
1.111111e-01 -9.047619e-01 0.000000e+00
1.428571e-01 -9.047619e-01 0.000000e+00
1.746032e-01 -9.047619e-01 0.000000e+00
2.063492e-01 -9.047619e-01 0.000000e+00
2.380952e-01 -9.047619e-01 0.000000e+00
2.698413e-01 -9.047619e-01 0.000000e+00
3.015873e-01 -9.047619e-01 0.000000e+00
3.333333e-01 -9.047619e-01 0.000000e+00
3.650794e-01 -9.047619e-01 0.000000e+00
3.968254e-01 -9.047619e-01 0.000000e+00
4.285714e-01 -9.047619e-01 0.000000e+00
4.603175e-01 -9.047619e-01 0.000000e+00
4.920635e-01 -9.047619e-01 0.000000e+00
5.238095e-01 -9.047619e-01 0.000000e+00
5.555556e-01 -9.047619e-01 0.000000e+00
5.873016e-01 -9.047619e-01 0.000000e+00
6.190476e-01 -9.047619e-01 0.000000e+00
[...]
POINT_DATA 4096 
SCALARS concentration double 1 
LOOKUP_TABLE default 
1.210614e+00 
1.185293e+00 
1.160154e+00 
1.135272e+00 
1.110668e+00 
1.086360e+00 
1.062364e+00 
1.038698e+00 
1.015380e+00 
9.924284e-01 
9.698653e-01 
9.477123e-01 
9.259931e-01 
9.047331e-01 
8.839591e-01 
8.636999e-01 
8.439858e-01 
8.248490e-01 
8.063234e-01 
7.884445e-01 
7.712497e-01 
7.547779e-01 
7.390695e-01 
7.241670e-01 
7.101161e-01 
6.969634e-01 
6.847549e-01 
6.735368e-01 
6.633548e-01 
6.542545e-01 
6.462801e-01 
6.394743e-01 
6.338781e-01 
6.295273e-01 
6.264523e-01 
6.246885e-01 
6.247625e-01 
6.268020e-01 
6.304736e-01 
6.355977e-01 
6.420713e-01 
6.498252e-01 
6.588009e-01 
6.689408e-01 
6.801910e-01 
6.924984e-01 
7.058111e-01 
7.200760e-01 
7.352409e-01 
7.512550e-01 
7.680701e-01 
7.856398e-01 
8.039204e-01 
8.228703e-01 
8.424502e-01 
8.626230e-01 
8.833538e-01 
9.046097e-01 
9.263599e-01 
9.485753e-01 
9.712289e-01 
9.942951e-01 
1.017750e+00 
1.041572e+00 
1.191638e+00 
1.165979e+00 
1.140493e+00 
1.115253e+00 
1.090285e+00 
1.065603e+00 
1.041224e+00 
1.017166e+00 
9.934469e-01 
9.700860e-01 
9.471045e-01 
9.245250e-01 
9.023717e-01 
8.806705e-01 
8.594491e-01 
8.387371e-01 
8.185660e-01 
7.989690e-01 
7.799815e-01 
7.616407e-01 
7.439858e-01 
7.270576e-01 
7.108991e-01 
6.955557e-01 
6.810762e-01 
6.675105e-01 
6.549081e-01 
6.433191e-01 
6.327934e-01 
6.233807e-01 
6.151296e-01 
6.080871e-01 
6.022981e-01 
5.978020e-01 
5.946319e-01 
5.928253e-01 
5.929728e-01 
5.951559e-01 
5.990065e-01 
6.043498e-01 
6.110858e-01 
6.191440e-01 
6.284614e-01 
6.389753e-01 
6.506273e-01 
6.633600e-01 
6.771172e-01 
6.918414e-01 
7.074764e-01 
7.239682e-01 
7.412654e-01 
7.593193e-01 
7.780838e-01 
7.975155e-01 
8.175735e-01 
8.382192e-01 
8.594168e-01 
8.811323e-01 
9.033341e-01 
9.259927e-01 
9.490805e-01 
9.725715e-01 
9.964415e-01 
1.020668e+00 
1.173141e+00 
1.147138e+00 
1.121302e+00 
1.095704e+00 
1.070367e+00 
1.045308e+00 
1.020542e+00 
9.960866e-01 
9.719602e-01 
9.481825e-01 
9.247748e-01 
9.017598e-01 
8.791623e-01 
8.570088e-01 
8.353277e-01 
8.141494e-01 
7.935064e-01 
7.734332e-01 
7.539664e-01 
7.351450e-01 
7.170099e-01 
6.996042e-01 
6.829734e-01 
6.671657e-01 
6.522337e-01 
6.382305e-01 
6.252097e-01 
6.132255e-01 
6.023325e-01 
5.925853e-01 
5.840372e-01 
5.767400e-01 
5.707431e-01 
5.660897e-01 
5.628166e-01 
5.609640e-01 
5.611906e-01 
5.635225e-01 
5.675610e-01 
5.731376e-01 
5.801547e-01 
5.885391e-01 
5.982215e-01 
6.091346e-01 
6.212148e-01 
6.344000e-01 
6.486284e-01 
6.638375e-01 
6.799670e-01 
6.969594e-01 
7.147603e-01 
7.333184e-01 
7.525853e-01 
7.725157e-01 
7.930671e-01 
8.141997e-01 
8.358764e-01 
8.580625e-01 
8.807258e-01 
9.038360e-01 
9.273651e-01 
9.512871e-01 
9.755772e-01 
1.000212e+00 
1.155137e+00 
1.128789e+00 
1.102602e+00 
1.076644e+00 
1.050937e+00 
1.025497e+00 
1.000340e+00 
9.754828e-01 
9.509439e-01 
9.267429e-01 
9.029014e-01 
8.794425e-01 
8.563913e-01 
8.337747e-01 
8.116219e-01 
7.899639e-01 
7.688342e-01 
7.482685e-01 
7.283046e-01 
7.089832e-01 
6.903471e-01 
6.724416e-01 
6.553150e-01 
6.390184e-01 
6.236080e-01 
6.091409e-01 
5.956749e-01 
5.832690e-01 
5.719830e-01 
5.618767e-01 
5.530091e-01 
5.454374e-01 
5.392161e-01 
5.343930e-01 
5.310089e-01 
5.291072e-01 
5.294190e-01 
5.319044e-01 
5.361410e-01 
5.419674e-01 
5.492868e-01 
5.580215e-01 
5.680956e-01 
5.794366e-01 
5.919748e-01 
6.056421e-01 
6.203703e-01 
6.360917e-01 
6.527419e-01 
6.702596e-01 
6.885873e-01 
7.076710e-01 
7.274599e-01 
7.479070e-01 
7.689680e-01 
7.906021e-01 
8.127709e-01 
8.354391e-01 
8.585737e-01 
8.821442e-01 
9.061222e-01 
9.304812e-01 
9.551964e-01 
9.802447e-01 
1.137644e+00 
1.110953e+00 
1.084415e+00 
1.058096e+00 
1.032017e+00 
1.006194e+00 
9.806431e-01 
9.553801e-01 
9.304238e-01 
9.057939e-01 
8.815120e-01 
8.576014e-01 
8.340874e-01 
8.109975e-01 
7.883612e-01 
7.662104e-01 
7.445792e-01 
7.235045e-01 
7.030255e-01 
6.831841e-01 
6.640254e-01 
6.455969e-01 
6.279496e-01 
6.111378e-01 
5.952215e-01 
5.802619e-01 
5.663217e-01 
5.534650e-01 
5.417576e-01 
5.312651e-01 
5.220529e-01 
5.141844e-01 
5.077201e-01 
5.027133e-01 
4.992093e-01 
4.972552e-01 
4.976579e-01 
5.003016e-01 
5.047484e-01 
5.108434e-01 
5.184892e-01 
5.276014e-01 
5.380974e-01 
5.498979e-01 
5.629263e-01 
5.771072e-01 
5.923657e-01 
6.086287e-01 
6.258272e-01 
6.438960e-01 
6.627744e-01 
6.824056e-01 
7.027366e-01 
7.237183e-01 
7.453051e-01 
7.674548e-01 
7.901283e-01 
8.132894e-01 
8.369048e-01 
8.609435e-01 
8.853769e-01 
9.101783e-01 
9.353227e-01 
9.607875e-01 
1.120684e+00 
1.093652e+00 
1.066763e+00 
1.040083e+00 
1.013632e+00 
9.874250e-01 
9.614773e-01 
9.358056e-01 
9.104281e-01 
8.853644e-01 
8.606361e-01 
8.362667e-01 
8.122817e-01 
7.887088e-01 
7.655779e-01 
7.429214e-01 
7.207743e-01 
6.991742e-01 
6.781616e-01 
6.577801e-01 
6.380764e-01 
6.191006e-01 
6.009064e-01 
5.835516e-01 
5.670998e-01 
5.516169e-01 
5.371709e-01 
5.238317e-01 
5.116712e-01 
5.007623e-01 
4.911774e-01 
4.829872e-01 
4.762591e-01 
4.710526e-01 
4.674186e-01 
4.654086e-01 
4.659072e-01 
4.687145e-01 
4.733852e-01 
4.797707e-01 
4.877699e-01 
4.972907e-01 
5.082423e-01 
5.205375e-01 
5.340913e-01 
5.488201e-01 
5.646418e-01 
5.814776e-01 
5.992536e-01 
6.179007e-01 
6.373546e-01 
6.575558e-01 
6.784491e-01 
6.999834e-01 
7.221119e-01 
7.447912e-01 
7.679814e-01 
7.916458e-01 
8.157505e-01 
8.402644e-01 
8.651589e-01 
8.904070e-01 
9.159841e-01 
9.418680e-01 
1.104281e+00 
1.076906e+00 
1.049668e+00 
1.022628e+00 
9.958047e-01 
9.692129e-01 
9.428677e-01 
9.167853e-01 
8.909836e-01 
8.654824e-01 
8.403029e-01 
8.154686e-01 
7.910052e-01 
7.669404e-01 
7.433044e-01 
7.201300e-01 
6.974528e-01 
6.753111e-01 
6.537466e-01 
6.328043e-01 
6.125329e-01 
5.929847e-01 
5.742163e-01 
5.562891e-01 
5.392704e-01 
5.232312e-01 
5.082451e-01 
4.943886e-01 
4.817406e-01 
4.703818e-01 
4.603928e-01 
4.518527e-01 
4.448373e-01 
4.394132e-01 
4.356378e-01 
4.335680e-01 
4.341670e-01 
4.371431e-01 
4.420540e-01 
4.487549e-01 
4.571386e-01 
4.671034e-01 
4.785486e-01 
4.913773e-01 
5.054950e-01 
5.208090e-01 
5.372292e-01 
5.546710e-01 
5.730553e-01 
5.923089e-01 
6.123639e-01 
6.331581e-01 
6.546339e-01 
6.767388e-01 
6.994245e-01 
7.226468e-01 
7.463650e-01 
7.705419e-01 
7.951437e-01 
8.201390e-01 
8.454991e-01 
8.711972e-01 
8.972095e-01 
9.235142e-01 
1.088433e+00 
1.060714e+00 
1.033130e+00 
1.005732e+00 
9.785381e-01 
9.515629e-01 
9.248208e-01 
8.983276e-01 
8.721011e-01 
8.461605e-01 
8.205270e-01 
7.952239e-01 
7.702767e-01 
7.457131e-01 
7.215634e-01 
6.978607e-01 
6.746407e-01 
6.519428e-01 
6.298093e-01 
6.082867e-01 
5.874253e-01 
5.672799e-01 
5.479098e-01 
5.293800e-01 
5.117620e-01 
4.951319e-01 
4.795694e-01 
4.651581e-01 
4.519850e-01 
4.401394e-01 
4.297116e-01 
4.207905e-01 
4.134611e-01 
4.077990e-01 
4.038694e-01 
4.017357e-01 
4.024363e-01 
4.055873e-01 
4.107575e-01 
4.178026e-01 
4.266065e-01 
4.370554e-01 
4.490367e-01 
4.624418e-01 
4.771652e-01 
4.931042e-01 
5.101607e-01 
5.282435e-01 
5.472682e-01 
5.671572e-01 
5.878393e-01 
6.092492e-01 
6.313276e-01 
6.540203e-01 
6.772778e-01 
7.010552e-01 
7.253115e-01 
7.500093e-01 
7.751144e-01 
8.005957e-01 
8.264247e-01 
8.525752e-01 
8.790240e-01 
9.057497e-01 
1.073100e+00 
1.045058e+00 
1.017135e+00 
9.893864e-01 
9.618288e-01 
9.344760e-01 
9.073421e-01 
8.804427e-01 
8.537948e-01 
8.274173e-01 
8.013310e-01 
7.755589e-01 
7.501262e-01 
7.250603e-01 
7.003915e-01 
6.761527e-01 
6.523801e-01 
6.291132e-01 
6.063954e-01 
5.842742e-01 
5.628015e-01 
5.420343e-01 
5.220346e-01 
5.028709e-01 
4.846191e-01 
4.673608e-01 
4.511822e-01 
4.361746e-01 
4.224338e-01 
4.100595e-01 
3.991528e-01 
3.898143e-01 
3.821403e-01 
3.762170e-01 
3.721187e-01 
3.699166e-01 
3.707131e-01 
3.740459e-01 
3.794977e-01 
3.869204e-01 
3.961851e-01 
4.071635e-01 
4.197283e-01 
4.337572e-01 
4.491321e-01 
4.657394e-01 
4.834726e-01 
5.022334e-01 
5.219319e-01 
5.424859e-01 
5.638209e-01 
5.858691e-01 
6.085692e-01 
6.318657e-01 
6.557084e-01 
6.800517e-01 
7.048545e-01 
7.300793e-01 
7.556920e-01 
7.816619e-01 
8.079608e-01 
8.345638e-01 
8.614480e-01 
8.885929e-01 
1.058493e+00 
1.030124e+00 
1.001863e+00 
9.737638e-01 
9.458417e-01 
9.181102e-01 
8.905828e-01 
8.632745e-01 
8.362018e-01 
8.093832e-01 
7.828389e-01 
7.565914e-01 
7.306653e-01 
7.050878e-01 
6.798887e-01 
6.551006e-01 
6.307598e-01 
6.069060e-01 
5.835830e-01 
5.608393e-01 
5.387284e-01 
5.173091e-01 
4.966464e-01 
4.768119e-01 
4.578858e-01 
4.399554e-01 
4.231140e-01 
4.074613e-01 
3.931031e-01 
3.801504e-01 
3.687176e-01 
3.589191e-01 
3.508649e-01 
3.446539e-01 
3.403706e-01 
3.380955e-01 
3.389982e-01 
3.425291e-01 
3.482926e-01 
3.561342e-01 
3.659088e-01 
3.774695e-01 
3.906728e-01 
4.053796e-01 
4.214571e-01 
4.387800e-01 
4.572330e-01 
4.767104e-01 
4.971167e-01 
5.183653e-01 
5.403786e-01 
5.630864e-01 
5.864258e-01 
6.103404e-01 
6.347793e-01 
6.596968e-01 
6.850518e-01 
7.108068e-01 
7.369283e-01 
7.633861e-01 
7.901531e-01 
8.172051e-01 
8.445203e-01 
8.720788e-01 
1.044539e+00 
1.015847e+00 
9.872544e-01 
9.588096e-01 
9.305282e-01 
9.024227e-01 
8.745060e-01 
8.467924e-01 
8.192978e-01 
7.920400e-01 
7.650385e-01 
7.383152e-01 
7.118940e-01 
6.858014e-01 
6.600664e-01 
6.347214e-01 
6.098022e-01 
5.853484e-01 
5.614041e-01 
5.380185e-01 
5.152461e-01 
4.931477e-01 
4.717907e-01 
4.512501e-01 
4.316098e-01 
4.129631e-01 
3.954107e-01 
3.790612e-01 
3.640317e-01 
3.504464e-01 
3.384348e-01 
3.281276e-01 
3.196513e-01 
3.131202e-01 
3.086315e-01 
3.062772e-01 
3.072872e-01 
3.110310e-01 
3.171399e-01 
3.254484e-01 
3.357897e-01 
3.479947e-01 
3.618986e-01 
3.773439e-01 
3.941809e-01 
4.122721e-01 
4.314921e-01 
4.517283e-01 
4.728791e-01 
4.948542e-01 
5.175729e-01 
5.409632e-01 
5.649610e-01 
5.895091e-01 
6.145566e-01 
6.400578e-01 
6.659720e-01 
6.922622e-01 
7.188957e-01 
7.458436e-01 
7.730798e-01 
8.005812e-01 
8.283265e-01 
8.562968e-01 
1.031262e+00 
1.002256e+00 
9.733378e-01 
9.445547e-01 
9.159209e-01 
8.874479e-01 
8.591478e-01 
8.310343e-01 
8.031226e-01 
7.754294e-01 
7.479737e-01 
7.207762e-01 
6.938600e-01 
6.672506e-01 
6.409764e-01 
6.150686e-01 
5.895625e-01 
5.644973e-01 
5.399171e-01 
5.158711e-01 
4.924151e-01 
4.696110e-01 
4.475286e-01 
4.262455e-01 
4.058495e-01 
3.864395e-01 
3.681236e-01 
3.510204e-01 
3.352592e-01 
3.209796e-01 
3.083287e-01 
2.974566e-01 
2.885100e-01 
2.816217e-01 
2.769045e-01 
2.744649e-01 
2.755809e-01 
2.795559e-01 
2.860509e-01 
2.948834e-01 
3.058580e-01 
3.187779e-01 
3.334528e-01 
3.497029e-01 
3.673606e-01 
3.862751e-01 
4.063110e-01 
4.273480e-01 
4.492795e-01 
4.720112e-01 
4.954601e-01 
5.195527e-01 
5.442244e-01 
5.694179e-01 
5.950824e-01 
6.211728e-01 
6.476490e-01 
6.744752e-01 
7.016203e-01 
7.290564e-01 
7.567587e-01 
7.847049e-01 
8.128751e-01 
8.412513e-01 
1.018691e+00 
9.893783e-01 
9.601441e-01 
9.310312e-01 
9.020533e-01 
8.732208e-01 
8.445452e-01 
8.160392e-01 
7.877171e-01 
7.595947e-01 
7.316899e-01 
7.040224e-01 
6.766139e-01 
6.494888e-01 
6.226741e-01 
5.962000e-01 
5.701008e-01 
5.444149e-01 
5.191859e-01 
4.944631e-01 
4.703025e-01 
4.467673e-01 
4.239286e-01 
4.018666e-01 
3.806723e-01 
3.604494e-01 
3.413137e-01 
3.233940e-01 
3.068336e-01 
2.917894e-01 
2.784293e-01 
2.669268e-01 
2.574527e-01 
2.501635e-01 
2.451908e-01 
2.426591e-01 
2.438788e-01 
2.481068e-01 
2.550378e-01 
2.644631e-01 
2.761501e-01 
2.898669e-01 
3.053924e-01 
3.225210e-01 
3.410660e-01 
3.608624e-01 
3.817647e-01 
4.036453e-01 
4.263927e-01 
4.499097e-01 
4.741115e-01 
4.989241e-01 
5.242825e-01 
5.501300e-01 
5.764167e-01 
6.030985e-01 
6.301366e-01 
6.574970e-01 
6.851502e-01 
7.130696e-01 
7.412319e-01 
7.696160e-01 
7.982032e-01 
8.269768e-01 
1.006850e+00 
9.772406e-01 
9.476998e-01 
9.182673e-01 
8.889552e-01 
8.597732e-01 
8.307318e-01 
8.018428e-01 
7.731194e-01 
7.445765e-01 
7.162304e-01 
6.880996e-01 
6.602044e-01 
6.325675e-01 
6.052145e-01 
5.781740e-01 
5.514789e-01 
5.251664e-01 
4.992792e-01 
4.738662e-01 
4.489830e-01 
4.246932e-01 
4.010691e-01 
3.781925e-01 
3.561567e-01 
3.350692e-01 
3.150533e-01 
2.962487e-01 
2.788137e-01 
2.629250e-01 
2.487748e-01 
2.365644e-01 
2.264946e-01 
2.187521e-01 
2.134918e-01 
2.108604e-01 
2.121802e-01 
2.166880e-01 
2.241164e-01 
2.342182e-01 
2.467120e-01 
2.613212e-01 
2.777876e-01 
2.958766e-01 
3.153808e-01 
3.361205e-01 
3.579406e-01 
3.807068e-01 
4.043038e-01 
4.286322e-01 
4.536065e-01 
4.791527e-01 
5.052069e-01 
5.317134e-01 
5.586236e-01 
5.858954e-01 
6.134920e-01 
6.413817e-01 
6.695364e-01 
6.979313e-01 
7.265446e-01 
7.553568e-01 
7.843506e-01 
8.135105e-01 
9.957507e-01 
9.658577e-01 
9.360224e-01 
9.062822e-01 
8.766481e-01 
8.471288e-01 
8.177340e-01 
7.884743e-01 
7.593617e-01 
7.304099e-01 
7.016339e-01 
6.730502e-01 
6.446777e-01 
6.165370e-01 
5.886520e-01 
5.610495e-01 
5.337603e-01 
5.068203e-01 
4.802705e-01 
4.541587e-01 
4.285397e-01 
4.034765e-01 
3.790412e-01 
3.553162e-01 
3.323959e-01 
3.103909e-01 
2.894310e-01 
2.696669e-01 
2.512732e-01 
2.344486e-01 
2.194137e-01 
2.064032e-01 
1.956548e-01 
1.873955e-01 
1.818086e-01 
1.790694e-01 
1.804846e-01 
1.853046e-01 
1.933076e-01 
2.041895e-01 
2.176037e-01 
2.332170e-01 
2.507267e-01 
2.698661e-01 
2.904060e-01 
3.121524e-01 
3.349411e-01 
3.586327e-01 
3.831093e-01 
4.082709e-01 
4.340323e-01 
4.603210e-01 
4.870747e-01 
5.142397e-01 
5.417700e-01 
5.696260e-01 
5.977737e-01 
6.261833e-01 
6.548288e-01 
6.836876e-01 
7.127394e-01 
7.419667e-01 
7.713537e-01 
8.008865e-01 
9.854010e-01 
9.552389e-01 
9.251240e-01 
8.950913e-01 
8.651506e-01 
8.353099e-01 
8.055776e-01 
7.759633e-01 
7.464778e-01 
7.171331e-01 
6.879427e-01 
6.589214e-01 
6.300857e-01 
6.014546e-01 
5.730493e-01 
5.448945e-01 
5.170191e-01 
4.894564e-01 
4.622457e-01 
4.354327e-01 
4.090706e-01 
3.832204e-01 
3.579528e-01 
3.333486e-01 
3.095023e-01 
2.865262e-01 
2.645552e-01 
2.437510e-01 
2.243049e-01 
2.064399e-01 
1.904093e-01 
1.764874e-01 
1.649573e-01 
1.561030e-01 
1.501420e-01 
1.472857e-01 
1.487910e-01 
1.539638e-01 
1.626401e-01 
1.744321e-01 
1.889049e-01 
2.056533e-01 
2.243222e-01 
2.446101e-01 
2.662659e-01 
2.890823e-01 
3.128879e-01 
3.375403e-01 
3.629210e-01 
3.889312e-01 
4.154876e-01 
4.425204e-01 
4.699703e-01 
4.977870e-01 
5.259278e-01 
5.543565e-01 
5.830416e-01 
6.119562e-01 
6.410767e-01 
6.703825e-01 
6.998558e-01 
7.294807e-01 
7.592434e-01 
7.891315e-01 
9.758326e-01 
9.454172e-01 
9.150392e-01 
8.847312e-01 
8.545017e-01 
8.243575e-01 
7.943061e-01 
7.643560e-01 
7.345164e-01 
7.047978e-01 
6.752119e-01 
6.457714e-01 
6.164909e-01 
5.873867e-01 
5.584778e-01 
5.297861e-01 
5.013377e-01 
4.731633e-01 
4.452995e-01 
4.177890e-01 
3.906821e-01 
3.640370e-01 
3.379210e-01 
3.124123e-01 
2.876034e-01 
2.636062e-01 
2.405586e-01 
2.186310e-01 
1.980307e-01 
1.790065e-01 
1.618488e-01 
1.468800e-01 
1.344400e-01 
1.248923e-01 
1.184982e-01 
1.155141e-01 
1.170953e-01 
1.226685e-01 
1.321430e-01 
1.450086e-01 
1.607084e-01 
1.787460e-01 
1.987054e-01 
2.202487e-01 
2.431038e-01 
2.670530e-01 
2.919207e-01 
3.175644e-01 
3.438677e-01 
3.707350e-01 
3.980874e-01 
4.258590e-01 
4.539953e-01 
4.824505e-01 
5.111862e-01 
5.401696e-01 
5.693729e-01 
5.987719e-01 
6.283460e-01 
6.580773e-01 
6.879500e-01 
7.179505e-01 
7.480668e-01 
7.782883e-01 
9.671680e-01 
9.365138e-01 
9.058865e-01 
8.753171e-01 
8.448134e-01 
8.143813e-01 
7.840272e-01 
7.537581e-01 
7.235820e-01 
6.935078e-01 
6.635449e-01 
6.337042e-01 
6.039975e-01 
5.744389e-01 
5.450442e-01 
5.158329e-01 
4.868277e-01 
4.580564e-01 
4.295520e-01 
4.013537e-01 
3.735073e-01 
3.460663e-01 
3.190927e-01 
2.926596e-01 
2.668551e-01 
2.417886e-01 
2.175985e-01 
1.944603e-01 
1.725950e-01 
1.522770e-01 
1.338367e-01 
1.176535e-01 
1.041361e-01 
9.376731e-02 
8.687023e-02 
8.374670e-02 
8.540129e-02 
9.143966e-02 
1.018863e-01 
1.160431e-01 
1.331804e-01 
1.526868e-01 
1.740801e-01 
1.969870e-01 
2.211196e-01 
2.462545e-01 
2.722173e-01 
2.988693e-01 
3.261000e-01 
3.538200e-01 
3.819565e-01 
4.104506e-01 
4.392536e-01 
4.683251e-01 
4.976316e-01 
5.271444e-01 
5.568395e-01 
5.866963e-01 
6.166972e-01 
6.468269e-01 
6.770723e-01 
7.074219e-01 
7.378657e-01 
7.683950e-01 
9.593760e-01 
9.285002e-01 
8.976419e-01 
8.668307e-01 
8.360733e-01 
8.053745e-01 
7.747396e-01 
7.441745e-01 
7.136855e-01 
6.832798e-01 
6.529650e-01 
6.227494e-01 
5.926426e-01 
5.626557e-01 
5.328020e-01 
5.030974e-01 
4.735617e-01 
4.442188e-01 
4.150975e-01 
3.862324e-01 
3.576636e-01 
3.294380e-01 
3.016103e-01 
2.742465e-01 
2.474278e-01 
2.212579e-01 
1.958710e-01 
1.714418e-01 
1.481983e-01 
1.264353e-01 
1.065260e-01 
8.892153e-02 
7.410828e-02 
6.274612e-02 
5.526463e-02 
5.198823e-02 
5.370601e-02 
6.028905e-02 
7.194482e-02 
8.768052e-02 
1.065158e-01 
1.276983e-01 
1.506783e-01 
1.750550e-01 
2.005334e-01 
2.268936e-01 
2.539690e-01 
2.816311e-01 
3.097791e-01 
3.383334e-01 
3.672309e-01 
3.964208e-01 
4.258615e-01 
4.555190e-01 
4.853652e-01 
5.153762e-01 
5.455324e-01 
5.758167e-01 
6.062149e-01 
6.367146e-01 
6.673052e-01 
6.979775e-01 
7.287235e-01 
7.595363e-01 
9.524813e-01 
9.214027e-01 
8.903333e-01 
8.593012e-01 
8.283120e-01 
7.973696e-01 
7.664782e-01 
7.356424e-01 
7.048672e-01 
6.741579e-01 
6.435200e-01 
6.129597e-01 
5.824842e-01 
5.521017e-01 
5.218224e-01 
4.916593e-01 
4.616282e-01 
4.317490e-01 
4.020456e-01 
3.725466e-01 
3.432854e-01 
3.143009e-01 
2.856392e-01 
2.573566e-01 
2.295249e-01 
2.022375e-01 
1.756179e-01 
1.498307e-01 
1.250982e-01 
1.017232e-01 
8.011973e-02 
6.084106e-02 
4.444238e-02 
3.185347e-02 
2.368327e-02 
2.023800e-02 
2.200923e-02 
2.923936e-02 
4.244310e-02 
6.015465e-02 
8.101186e-02 
1.041015e-01 
1.288190e-01 
1.547548e-01 
1.816235e-01 
2.092221e-01 
2.374018e-01 
2.660505e-01 
2.950831e-01 
3.244338e-01 
3.540509e-01 
3.838934e-01 
4.139280e-01 
4.441279e-01 
4.744709e-01 
5.049385e-01 
5.355152e-01 
5.661882e-01 
5.969465e-01 
6.277805e-01 
6.586824e-01 
6.896450e-01 
7.206625e-01 
7.517294e-01 
9.465193e-01 
9.152585e-01 
8.839991e-01 
8.527682e-01 
8.215706e-01 
7.904094e-01 
7.592877e-01 
7.282089e-01 
6.971765e-01 
6.661942e-01 
6.352657e-01 
6.043950e-01 
5.735870e-01 
5.428471e-01 
5.121828e-01 
4.816035e-01 
4.511211e-01 
4.207510e-01 
3.905116e-01 
3.604250e-01 
3.305167e-01 
3.008170e-01 
2.713621e-01 
2.421974e-01 
2.133816e-01 
1.849930e-01 
1.571358e-01 
1.299521e-01 
1.036389e-01 
7.848022e-02 
5.490853e-02 
3.365650e-02 
1.528248e-02 
1.149547e-03 
-7.915689e-03 
-1.143300e-02 
-9.137025e-03 
-9.289422e-04 
1.358545e-02 
3.384258e-02 
5.711974e-02 
8.235314e-02 
1.089307e-01 
1.364732e-01 
1.647325e-01 
1.935404e-01 
2.227773e-01 
2.523562e-01 
2.822124e-01 
3.122964e-01 
3.425701e-01 
3.730033e-01 
4.035720e-01 
4.342567e-01 
4.650416e-01 
4.959135e-01 
5.268615e-01 
5.578765e-01 
5.889506e-01 
6.200773e-01 
6.512509e-01 
6.824666e-01 
7.137201e-01 
7.450079e-01 
9.415277e-01 
9.101071e-01 
8.786799e-01 
8.472736e-01 
8.158924e-01 
7.845385e-01 
7.532143e-01 
7.219219e-01 
6.906638e-01 
6.594420e-01 
6.282586e-01 
5.971158e-01 
5.660162e-01 
5.349630e-01 
5.039607e-01 
4.730153e-01 
4.421350e-01 
4.113302e-01 
3.806135e-01 
3.500003e-01 
3.195084e-01 
2.891590e-01 
2.589782e-01 
2.289990e-01 
1.992649e-01 
1.698339e-01 
1.407841e-01 
1.122224e-01 
8.429846e-02 
5.722774e-02 
3.133024e-02 
7.769340e-03 
-1.216652e-02 
-2.738009e-02 
-3.787840e-02 
-4.279051e-02 
-3.926304e-02 
-2.925478e-02 
-1.291963e-02 
9.414325e-03 
3.555926e-02 
6.311693e-02 
9.159131e-02 
1.207019e-01 
1.502753e-01 
1.801982e-01 
2.103920e-01 
2.408006e-01 
2.713824e-01 
3.021063e-01 
3.329481e-01 
3.638891e-01 
3.949143e-01 
4.260117e-01 
4.571712e-01 
4.883849e-01 
5.196459e-01 
5.509485e-01 
5.822878e-01 
6.136599e-01 
6.450610e-01 
6.764883e-01 
7.079391e-01 
7.394111e-01 
9.375600e-01 
9.060023e-01 
8.744301e-01 
8.428724e-01 
8.113330e-01 
7.798136e-01 
7.483157e-01 
7.168406e-01 
6.853896e-01 
6.539636e-01 
6.225635e-01 
5.911899e-01 
5.598436e-01 
5.285258e-01 