# vtk DataFile Version 2.0 
Quadtree Mesh 
ASCII 
DATASET UNSTRUCTURED_GRID 
POINTS 4096 double 
-1.000000e+00 -1.000000e+00 0.000000e+00
-9.682540e-01 -1.000000e+00 0.000000e+00
-9.365079e-01 -1.000000e+00 0.000000e+00
-9.047619e-01 -1.000000e+00 0.000000e+00
-8.730159e-01 -1.000000e+00 0.000000e+00
-8.412698e-01 -1.000000e+00 0.000000e+00
-8.095238e-01 -1.000000e+00 0.000000e+00
-7.777778e-01 -1.000000e+00 0.000000e+00
-7.460317e-01 -1.000000e+00 0.000000e+00
-7.142857e-01 -1.000000e+00 0.000000e+00
-6.825397e-01 -1.000000e+00 0.000000e+00
-6.507937e-01 -1.000000e+00 0.000000e+00
-6.190476e-01 -1.000000e+00 0.000000e+00
-5.873016e-01 -1.000000e+00 0.000000e+00
-5.555556e-01 -1.000000e+00 0.000000e+00
-5.238095e-01 -1.000000e+00 0.000000e+00
-4.920635e-01 -1.000000e+00 0.000000e+00
-4.603175e-01 -1.000000e+00 0.000000e+00
-4.285714e-01 -1.000000e+00 0.000000e+00
-3.968254e-01 -1.000000e+00 0.000000e+00
-3.650794e-01 -1.000000e+00 0.000000e+00
-3.333333e-01 -1.000000e+00 0.000000e+00
-3.015873e-01 -1.000000e+00 0.000000e+00
-2.698413e-01 -1.000000e+00 0.000000e+00
-2.380952e-01 -1.000000e+00 0.000000e+00
-2.063492e-01 -1.000000e+00 0.000000e+00
-1.746032e-01 -1.000000e+00 0.000000e+00
-1.428571e-01 -1.000000e+00 0.000000e+00
-1.111111e-01 -1.000000e+00 0.000000e+00
-7.936508e-02 -1.000000e+00 0.000000e+00
-4.761905e-02 -1.000000e+00 0.000000e+00
-1.587302e-02 -1.000000e+00 0.000000e+00
1.587302e-02 -1.000000e+00 0.000000e+00
4.761905e-02 -1.000000e+00 0.000000e+00
7.936508e-02 -1.000000e+00 0.000000e+00
1.111111e-01 -1.000000e+00 0.000000e+00
1.428571e-01 -1.000000e+00 0.000000e+00
1.746032e-01 -1.000000e+00 0.000000e+00
2.063492e-01 -1.000000e+00 0.000000e+00
2.380952e-01 -1.000000e+00 0.000000e+00
2.698413e-01 -1.000000e+00 0.000000e+00
3.015873e-01 -1.000000e+00 0.000000e+00
3.333333e-01 -1.000000e+00 0.000000e+00
3.650794e-01 -1.000000e+00 0.000000e+00
3.968254e-01 -1.000000e+00 0.000000e+00
4.285714e-01 -1.000000e+00 0.000000e+00
4.603175e-01 -1.000000e+00 0.000000e+00
4.920635e-01 -1.000000e+00 0.000000e+00
5.238095e-01 -1.000000e+00 0.000000e+00
5.555556e-01 -1.000000e+00 0.000000e+00
5.873016e-01 -1.000000e+00 0.000000e+00
6.190476e-01 -1.000000e+00 0.000000e+00
6.507937e-01 -1.000000e+00 0.000000e+00
6.825397e-01 -1.000000e+00 0.000000e+00
7.142857e-01 -1.000000e+00 0.000000e+00
7.460317e-01 -1.000000e+00 0.000000e+00
7.777778e-01 -1.000000e+00 0.000000e+00
8.095238e-01 -1.000000e+00 0.000000e+00
8.412698e-01 -1.000000e+00 0.000000e+00
8.730159e-01 -1.000000e+00 0.000000e+00
9.047619e-01 -1.000000e+00 0.000000e+00
9.365079e-01 -1.000000e+00 0.000000e+00
9.682540e-01 -1.000000e+00 0.000000e+00
1.000000e+00 -1.000000e+00 0.000000e+00
-1.000000e+00 -9.682540e-01 0.000000e+00
-9.682540e-01 -9.682540e-01 0.000000e+00
-9.365079e-01 -9.682540e-01 0.000000e+00
-9.047619e-01 -9.682540e-01 0.000000e+00
-8.730159e-01 -9.682540e-01 0.000000e+00
-8.412698e-01 -9.682540e-01 0.000000e+00
-8.095238e-01 -9.682540e-01 0.000000e+00
-7.777778e-01 -9.682540e-01 0.000000e+00
-7.460317e-01 -9.682540e-01 0.000000e+00
-7.142857e-01 -9.682540e-01 0.000000e+00
-6.825397e-01 -9.682540e-01 0.000000e+00
-6.507937e-01 -9.682540e-01 0.000000e+00
-6.190476e-01 -9.682540e-01 0.000000e+00
-5.873016e-01 -9.682540e-01 0.000000e+00
-5.555556e-01 -9.682540e-01 0.000000e+00
-5.238095e-01 -9.682540e-01 0.000000e+00
-4.920635e-01 -9.682540e-01 0.000000e+00
-4.603175e-01 -9.682540e-01 0.000000e+00
-4.285714e-01 -9.682540e-01 0.000000e+00
-3.968254e-01 -9.682540e-01 0.000000e+00
-3.650794e-01 -9.682540e-01 0.000000e+00
-3.333333e-01 -9.682540e-01 0.000000e+00
-3.015873e-01 -9.682540e-01 0.000000e+00
-2.698413e-01 -9.682540e-01 0.000000e+00
-2.380952e-01 -9.682540e-01 0.000000e+00
-2.063492e-01 -9.682540e-01 0.000000e+00
-1.746032e-01 -9.682540e-01 0.000000e+00
-1.428571e-01 -9.682540e-01 0.000000e+00
-1.111111e-01 -9.682540e-01 0.000000e+00
-7.936508e-02 -9.682540e-01 0.000000e+00
-4.761905e-02 -9.682540e-01 0.000000e+00
-1.587302e-02 -9.682540e-01 0.000000e+00
1.587302e-02 -9.682540e-01 0.000000e+00
4.761905e-02 -9.682540e-01 0.000000e+00
7.936508e-02 -9.682540e-01 0.000000e+00
1.111111e-01 -9.682540e-01 0.000000e+00
1.428571e-01 -9.682540e-01 0.000000e+00
1.746032e-01 -9.682540e-01 0.000000e+00
2.063492e-01 -9.682540e-01 0.000000e+00
2.380952e-01 -9.682540e-01 0.000000e+00
2.698413e-01 -9.682540e-01 0.000000e+00
3.015873e-01 -9.682540e-01 0.000000e+00
3.333333e-01 -9.682540e-01 0.000000e+00
3.650794e-01 -9.682540e-01 0.000000e+00
3.968254e-01 -9.682540e-01 0.000000e+00
4.285714e-01 -9.682540e-01 0.000000e+00
4.603175e-01 -9.682540e-01 0.000000e+00
4.920635e-01 -9.682540e-01 0.000000e+00
5.238095e-01 -9.682540e-01 0.000000e+00
5.555556e-01 -9.682540e-01 0.000000e+00
5.873016e-01 -9.682540e-01 0.000000e+00
6.190476e-01 -9.682540e-01 0.000000e+00
6.507937e-01 -9.682540e-01 0.000000e+00
6.825397e-01 -9.682540e-01 0.000000e+00
7.142857e-01 -9.682540e-01 0.000000e+00
7.460317e-01 -9.682540e-01 0.000000e+00
7.777778e-01 -9.682540e-01 0.000000e+00
8.095238e-01 -9.682540e-01 0.000000e+00
8.412698e-01 -9.682540e-01 0.000000e+00
8.730159e-01 -9.682540e-01 0.000000e+00
9.047619e-01 -9.682540e-01 0.000000e+00
9.365079e-01 -9.682540e-01 0.000000e+00
9.682540e-01 -9.682540e-01 0.000000e+00
1.000000e+00 -9.682540e-01 0.000000e+00
-1.000000e+00 -9.365079e-01 0.000000e+00
-9.682540e-01 -9.365079e-01 0.000000e+00
-9.365079e-01 -9.365079e-01 0.000000e+00
-9.047619e-01 -9.365079e-01 0.000000e+00
-8.730159e-01 -9.365079e-01 0.000000e+00
-8.412698e-01 -9.365079e-01 0.000000e+00
-8.095238e-01 -9.365079e-01 0.000000e+00
-7.777778e-01 -9.365079e-01 0.000000e+00
-7.460317e-01 -9.365079e-01 0.000000e+00
-7.142857e-01 -9.365079e-01 0.000000e+00
-6.825397e-01 -9.365079e-01 0.000000e+00
-6.507937e-01 -9.365079e-01 0.000000e+00
-6.190476e-01 -9.365079e-01 0.000000e+00
-5.873016e-01 -9.365079e-01 0.000000e+00
-5.555556e-01 -9.365079e-01 0.000000e+00
-5.238095e-01 -9.365079e-01 0.000000e+00
-4.920635e-01 -9.365079e-01 0.000000e+00
-4.603175e-01 -9.365079e-01 0.000000e+00
-4.285714e-01 -9.365079e-01 0.000000e+00
-3.968254e-01 -9.365079e-01 0.000000e+00
-3.650794e-01 -9.365079e-01 0.000000e+00
-3.333333e-01 -9.365079e-01 0.000000e+00
-3.015873e-01 -9.365079e-01 0.000000e+00
-2.698413e-01 -9.365079e-01 0.000000e+00
-2.380952e-01 -9.365079e-01 0.000000e+00
-2.063492e-01 -9.365079e-01 0.000000e+00
-1.746032e-01 -9.365079e-01 0.000000e+00
-1.428571e-01 -9.365079e-01 0.000000e+00
-1.111111e-01 -9.365079e-01 0.000000e+00
-7.936508e-02 -9.365079e-01 0.000000e+00
-4.761905e-02 -9.365079e-01 0.000000e+00
-1.587302e-02 -9.365079e-01 0.000000e+00
1.587302e-02 -9.365079e-01 0.000000e+00
4.761905e-02 -9.365079e-01 0.000000e+00
7.936508e-02 -9.365079e-01 0.000000e+00
1.111111e-01 -9.365079e-01 0.000000e+00
1.428571e-01 -9.365079e-01 0.000000e+00
1.746032e-01 -9.365079e-01 0.000000e+00
2.063492e-01 -9.365079e-01 0.000000e+00
2.380952e-01 -9.365079e-01 0.000000e+00
2.698413e-01 -9.365079e-01 0.000000e+00
3.015873e-01 -9.365079e-01 0.000000e+00
3.333333e-01 -9.365079e-01 0.000000e+00
3.650794e-01 -9.365079e-01 0.000000e+00
3.968254e-01 -9.365079e-01 0.000000e+00
4.285714e-01 -9.365079e-01 0.000000e+00
4.603175e-01 -9.365079e-01 0.000000e+00
4.920635e-01 -9.365079e-01 0.000000e+00
5.238095e-01 -9.365079e-01 0.000000e+00
5.555556e-01 -9.365079e-01 0.000000e+00
5.873016e-01 -9.365079e-01 0.000000e+00
6.190476e-01 -9.365079e-01 0.000000e+00
6.507937e-01 -9.365079e-01 0.000000e+00
6.825397e-01 -9.365079e-01 0.000000e+00
7.142857e-01 -9.365079e-01 0.000000e+00
7.460317e-01 -9.365079e-01 0.000000e+00
7.777778e-01 -9.365079e-01 0.000000e+00
8.095238e-01 -9.365079e-01 0.000000e+00
8.412698e-01 -9.365079e-01 0.000000e+00
8.730159e-01 -9.365079e-01 0.000000e+00
9.047619e-01 -9.365079e-01 0.000000e+00
9.365079e-01 -9.365079e-01 0.000000e+00
9.682540e-01 -9.365079e-01 0.000000e+00
1.000000e+00 -9.365079e-01 0.000000e+00
-1.000000e+00 -9.047619e-01 0.000000e+00
-9.682540e-01 -9.047619e-01 0.000000e+00
-9.365079e-01 -9.047619e-01 0.000000e+00
-9.047619e-01 -9.047619e-01 0.000000e+00
-8.730159e-01 -9.047619e-01 0.000000e+00
-8.412698e-01 -9.047619e-01 0.000000e+00
-8.095238e-01 -9.047619e-01 0.000000e+00
-7.777778e-01 -9.047619e-01 0.000000e+00
-7.460317e-01 -9.047619e-01 0.000000e+00
-7.142857e-01 -9.047619e-01 0.000000e+00
-6.825397e-01 -9.047619e-01 0.000000e+00
-6.507937e-01 -9.047619e-01 0.000000e+00
-6.190476e-01 -9.047619e-01 0.000000e+00
-5.873016e-01 -9.047619e-01 0.000000e+00
-5.555556e-01 -9.047619e-01 0.000000e+00
-5.238095e-01 -9.047619e-01 0.000000e+00
-4.920635e-01 -9.047619e-01 0.000000e+00
-4.603175e-01 -9.047619e-01 0.000000e+00
-4.285714e-01 -9.047619e-01 0.000000e+00
-3.968254e-01 -9.047619e-01 0.000000e+00
-3.650794e-01 -9.047619e-01 0.000000e+00
-3.333333e-01 -9.047619e-01 0.000000e+00
-3.015873e-01 -9.047619e-01 0.000000e+00
-2.698413e-01 -9.047619e-01 0.000000e+00
-2.380952e-01 -9.047619e-01 0.000000e+00
-2.063492e-01 -9.047619e-01 0.000000e+00
-1.746032e-01 -9.047619e-01 0.000000e+00
-1.428571e-01 -9.047619e-01 0.000000e+00
-1.111111e-01 -9.047619e-01 0.000000e+00
-7.936508e-02 -9.047619e-01 0.000000e+00
-4.761905e-02 -9.047619e-01 0.000000e+00
-1.587302e-02 -9.047619e-01 0.000000e+00
1.587302e-02 -9.047619e-01 0.000000e+00
4.761905e-02 -9.047619e-01 0.000000e+00
7.936508e-02 -9.047619e-01 0.000000e+00
1.111111e-01 -9.047619e-01 0.000000e+00
1.428571e-01 -9.047619e-01 0.000000e+00
1.746032e-01 -9.047619e-01 0.000000e+00
2.063492e-01 -9.047619e-01 0.000000e+00
2.380952e-01 -9.047619e-01 0.000000e+00
2.698413e-01 -9.047619e-01 0.000000e+00
3.015873e-01 -9.047619e-01 0.000000e+00
3.333333e-01 -9.047619e-01 0.000000e+00
3.650794e-01 -9.047619e-01 0.000000e+00
3.968254e-01 -9.047619e-01 0.000000e+00
4.285714e-01 -9.047619e-01 0.000000e+00
4.603175e-01 -9.047619e-01 0.000000e+00
4.920635e-01 -9.047619e-01 0.000000e+00
5.238095e-01 -9.047619e-01 0.000000e+00
5.555556e-01 -9.047619e-01 0.000000e+00
5.873016e-01 -9.047619e-01 0.000000e+00
6.190476e-01 -9.047619e-01 0.000000e+00
[...]
POINT_DATA 4096 
SCALARS concentration double 1 
LOOKUP_TABLE default 
1.175845e+00 
1.150593e+00 
1.125530e+00 
1.100730e+00 
1.076216e+00 
1.052008e+00 
1.028122e+00 
1.004578e+00 
9.813969e-01 
9.585990e-01 
9.362076e-01 
9.142472e-01 
8.927434e-01 
8.717237e-01 
8.512168e-01 
8.312535e-01 
8.118658e-01 
7.930878e-01 
7.749551e-01 
7.575054e-01 
7.407779e-01 
7.248147e-01 
7.096618e-01 
6.953656e-01 
6.819727e-01 
6.695306e-01 
6.580872e-01 
6.476911e-01 
6.383903e-01 
6.302321e-01 
6.232625e-01 
6.175259e-01 
6.130651e-01 
6.099197e-01 
6.081297e-01 
6.083043e-01 
6.105236e-01 
6.143828e-01 
6.197089e-01 
6.264055e-01 
6.344038e-01 
6.436455e-01 
6.540729e-01 
6.656262e-01 
6.782467e-01 
6.918770e-01 
7.064611e-01 
7.219452e-01 
7.382776e-01 
7.554086e-01 
7.732911e-01 
7.918803e-01 
8.111339e-01 
8.310120e-01 
8.514769e-01 
8.724933e-01 
8.940280e-01 
9.160497e-01 
9.385290e-01 
9.614375e-01 
9.847491e-01 
1.008440e+00 
1.032489e+00 
1.056874e+00 
1.156775e+00 
1.131175e+00 
1.105754e+00 
1.080585e+00 
1.055695e+00 
1.031101e+00 
1.006821e+00 
9.828740e-01 
9.592803e-01 
9.360616e-01 
9.132414e-01 
8.908442e-01 
8.688964e-01 
8.474259e-01 
8.264623e-01 
8.060371e-01 
7.861836e-01 
7.669370e-01 
7.483346e-01 
7.304158e-01 
7.132222e-01 
6.967982e-01 
6.811926e-01 
6.664549e-01 
6.526353e-01 
6.397851e-01 
6.279563e-01 
6.172018e-01 
6.075743e-01 
5.991257e-01 
5.919067e-01 
5.859665e-01 
5.813522e-01 
5.781072e-01 
5.762747e-01 
5.765381e-01 
5.789102e-01 
5.829589e-01 
5.885174e-01 
5.954900e-01 
6.038057e-01 
6.134034e-01 
6.242201e-01 
6.361909e-01 
6.492519e-01 
6.633409e-01 
6.783979e-01 
6.943651e-01 
7.111872e-01 
7.288118e-01 
7.471890e-01 
7.662719e-01 
7.860161e-01 
8.063801e-01 
8.273250e-01 
8.488143e-01 
8.708138e-01 
8.932916e-01 
9.162173e-01 
9.395621e-01 
9.633002e-01 
9.874078e-01 
1.011863e+00 
1.036645e+00 
1.138191e+00 
1.112236e+00 
1.086454e+00 
1.060916e+00 
1.035647e+00 
1.010663e+00 
9.859842e-01 
9.616283e-01 
9.376162e-01 
9.139697e-01 
8.907124e-01 
8.678692e-01 
8.454668e-01 
8.235337e-01 
8.021001e-01 
7.811983e-01 
7.608627e-01 
7.411299e-01 
7.220386e-01 
7.036303e-01 
6.859486e-01 
6.690406e-01 
6.529581e-01 
6.377539e-01 
6.234820e-01 
6.101978e-01 
5.979580e-01 
5.868201e-01 
5.768422e-01 
5.680814e-01 
5.605940e-01 
5.544341e-01 
5.496539e-01 
5.463013e-01 
5.444231e-01 
5.447823e-01 
5.473114e-01 
5.515586e-01 
5.573639e-01 
5.646321e-01 
5.732890e-01 
5.832688e-01 
5.945020e-01 
6.069179e-01 
6.204469e-01 
6.350219e-01 
6.505780e-01 
6.670535e-01 
6.843893e-01 
7.025297e-01 
7.214223e-01 
7.410177e-01 
7.612697e-01 
7.821353e-01 
8.035742e-01 
8.255487e-01 
8.480241e-01 
8.709673e-01 
8.943474e-01 
9.181357e-01 
9.423064e-01 
9.668356e-01 
9.917012e-01 
1.016883e+00 
1.120109e+00 
1.093800e+00 
1.067655e+00 
1.041746e+00 
1.016095e+00 
9.907193e-01 
9.656375e-01 
9.408683e-01 
9.164324e-01 
8.923516e-01 
8.686495e-01 
8.453513e-01 
8.224840e-01 
8.000765e-01 
7.781596e-01 
7.567664e-01 
7.359322e-01 
7.156948e-01 
6.960949e-01 
6.771756e-01 
6.589829e-01 
6.415666e-01 
6.249814e-01 
6.092838e-01 
5.945318e-01 
5.807854e-01 
5.681064e-01 
5.565577e-01 
5.462032e-01 
5.371062e-01 
5.293290e-01 
5.229317e-01 
5.179721e-01 
5.145032e-01 
5.125763e-01 
5.130389e-01 
5.157293e-01 
5.201859e-01 
5.262553e-01 
5.338412e-01 
5.428655e-01 
5.532558e-01 
5.649353e-01 
5.778264e-01 
5.918537e-01 
6.069441e-01 
6.230278e-01 
6.400385e-01 
6.579132e-01 
6.765930e-01 
6.960226e-01 
7.161504e-01 
7.369282e-01 
7.583114e-01 
7.802585e-01 
8.027309e-01 
8.256930e-01 
8.491109e-01 
8.729534e-01 
8.971920e-01 
9.218009e-01 
9.467564e-01 
9.720364e-01 
9.976204e-01 
1.102552e+00 
1.075889e+00 
1.049383e+00 
1.023101e+00 
9.970665e-01 
9.712967e-01 
9.458092e-01 
9.206229e-01 
8.957582e-01 
8.712371e-01 
8.470831e-01 
8.233214e-01 
7.999793e-01 
7.770858e-01 
7.546723e-01 
7.327726e-01 
7.114230e-01 
6.906626e-01 
6.705335e-01 
6.510810e-01 
6.323534e-01 
6.144031e-01 
5.972878e-01 
5.810679e-01 
5.658059e-01 
5.515667e-01 
5.384177e-01 
5.264280e-01 
5.156680e-01 
5.062079e-01 
4.981170e-01 
4.914623e-01 
4.863081e-01 
4.827132e-01 
4.807342e-01 
4.813078e-01 
4.841641e-01 
4.888433e-01 
4.951968e-01 
5.031260e-01 
5.125469e-01 
5.233793e-01 
5.355380e-01 
5.489378e-01 
5.634962e-01 
5.791339e-01 
5.957755e-01 
6.133499e-01 
6.317901e-01 
6.510337e-01 
6.710225e-01 
6.917027e-01 
7.130243e-01 
7.349410e-01 
7.574104e-01 
7.803929e-01 
8.038519e-01 
8.277533e-01 
8.520656e-01 
8.767608e-01 
9.018131e-01 
9.271989e-01 
9.528961e-01 
9.788846e-01 
1.085544e+00 
1.058529e+00 
1.031661e+00 
1.005007e+00 
9.785886e-01 
9.524231e-01 
9.265277e-01 
9.009212e-01 
8.756238e-01 
8.506571e-01 
8.260446e-01 
8.018115e-01 
7.779850e-01 
7.545943e-01 
7.316713e-01 
7.092503e-01 
6.873684e-01 
6.660662e-01 
6.453873e-01 
6.253787e-01 
6.060913e-01 
5.875800e-01 
5.699056e-01 
5.531326e-01 
5.373284e-01 
5.225633e-01 
5.089107e-01 
4.964467e-01 
4.852490e-01 
4.753959e-01 
4.669645e-01 
4.600298e-01 
4.546636e-01 
4.509318e-01 
4.488968e-01 
4.495881e-01 
4.526160e-01 
4.575332e-01 
4.641940e-01 
4.724956e-01 
4.823464e-01 
4.936567e-01 
5.063312e-01 
5.202764e-01 
5.354018e-01 
5.516211e-01 
5.688530e-01 
5.870211e-01 
6.060545e-01 
6.258870e-01 
6.464578e-01 
6.677107e-01 
6.895939e-01 
7.120599e-01 
7.350650e-01 
7.585691e-01 
7.825347e-01 
8.069275e-01 
8.317165e-01 
8.568738e-01 
8.823737e-01 
9.081928e-01 
9.343094e-01 
9.607036e-01 
1.069109e+00 
1.041740e+00 
1.014512e+00 
9.874866e-01 
9.606847e-01 
9.341230e-01 
9.078186e-01 
8.817898e-01 
8.560565e-01 
8.306401e-01 
8.055636e-01 
7.808519e-01 
7.565322e-01 
7.326339e-01 
7.091890e-01 
6.862323e-01 
6.638020e-01 
6.419394e-01 
6.206898e-01 
6.001021e-01 
5.802294e-01 
5.611293e-01 
5.428655e-01 
5.255070e-01 
5.091263e-01 
4.937994e-01 
4.796068e-01 
4.666321e-01 
4.549614e-01 
4.446817e-01 
4.358797e-01 
4.286395e-01 
4.230417e-01 
4.191603e-01 
4.170651e-01 
4.178770e-01 
4.210842e-01 
4.262577e-01 
4.332527e-01 
4.419601e-01 
4.522787e-01 
4.641067e-01 
4.773381e-01 
4.918692e-01 
5.076006e-01 
5.244385e-01 
5.422952e-01 
5.610889e-01 
5.807441e-01 
6.011914e-01 
6.223672e-01 
6.442129e-01 
6.666753e-01 
6.897057e-01 
7.132593e-01 
7.372955e-01 
7.617764e-01 
7.866679e-01 
8.119394e-01 
8.375632e-01 
8.635140e-01 
8.897686e-01 
9.163056e-01 
9.431057e-01 
1.053244e+00 
1.025520e+00 
9.979344e-01 
9.705402e-01 
9.433571e-01 
9.164009e-01 
8.896884e-01 
8.632374e-01 
8.370673e-01 
8.111989e-01 
7.856548e-01 
7.604596e-01 
7.356402e-01 
7.112260e-01 
6.872489e-01 
6.637444e-01 
6.407510e-01 
6.183113e-01 
5.964717e-01 
5.752828e-01 
5.547999e-01 
5.350832e-01 
5.161995e-01 
4.982224e-01 
4.812294e-01 
4.653033e-01 
4.505317e-01 
4.370068e-01 
4.248240e-01 
4.140807e-01 
4.048743e-01 
3.972997e-01 
3.914477e-01 
3.874022e-01 
3.852419e-01 
3.861713e-01 
3.895667e-01 
3.950176e-01 
4.023777e-01 
4.115291e-01 
4.223583e-01 
4.347492e-01 
4.485830e-01 
4.637445e-01 
4.801244e-01 
4.976207e-01 
5.161385e-01 
5.355907e-01 
5.558975e-01 
5.769858e-01 
5.987893e-01 
6.212477e-01 
6.443062e-01 
6.679150e-01 
6.920288e-01 
7.166065e-01 
7.416102e-01 
7.670064e-01 
7.927649e-01 
8.188584e-01 
8.452619e-01 
8.719528e-01 
8.989102e-01 
9.261152e-01 
1.037903e+00 
1.009848e+00 
9.819152e-01 
9.541603e-01 
9.266030e-01 
8.992588e-01 
8.721435e-01 
8.452747e-01 
8.186708e-01 
7.923523e-01 
7.663411e-01 
7.406614e-01 
7.153394e-01 
6.904043e-01 
6.658883e-01 
6.418266e-01 
6.182585e-01 
5.952272e-01 
5.727801e-01 
5.509693e-01 
5.298519e-01 
5.094908e-01 
4.899560e-01 
4.713253e-01 
4.536820e-01 
4.371158e-01 
4.217221e-01 
4.076026e-01 
3.948634e-01 
3.836136e-01 
3.739633e-01 
3.660202e-01 
3.598878e-01 
3.556615e-01 
3.534309e-01 
3.544681e-01 
3.580619e-01 
3.638148e-01 
3.715762e-01 
3.812153e-01 
3.926038e-01 
4.056086e-01 
4.200954e-01 
4.359360e-01 
4.530102e-01 
4.712069e-01 
4.904240e-01 
5.105687e-01 
5.315567e-01 
5.533117e-01 
5.757651e-01 
5.988547e-01 
6.225246e-01 
6.467243e-01 
6.714078e-01 
6.965340e-01 
7.220658e-01 
7.479703e-01 
7.742178e-01 
8.007815e-01 
8.276371e-01 
8.547625e-01 
8.821376e-01 
9.097442e-01 
1.023305e+00 
9.949141e-01 
9.666344e-01 
9.385195e-01 
9.105884e-01 
8.828558e-01 
8.553370e-01 
8.280485e-01 
8.010081e-01 
7.742355e-01 
7.477517e-01 
7.215802e-01 
6.957467e-01 
6.702800e-01 
6.452119e-01 
6.205779e-01 
5.964173e-01 
5.727737e-01 
5.496953e-01 
5.272356e-01 
5.054534e-01 
4.844139e-01 
4.641900e-01 
4.448640e-01 
4.265252e-01 
4.092703e-01 
3.932037e-01 
3.784372e-01 
3.650891e-01 
3.532823e-01 
3.431415e-01 
3.347903e-01 
3.283471e-01 
3.239215e-01 
3.216155e-01 
3.227740e-01 
3.265864e-01 
3.326742e-01 
3.408813e-01 
3.510616e-01 
3.630668e-01 
3.767433e-01 
3.919395e-01 
4.085125e-01 
4.263299e-01 
4.452709e-01 
4.652262e-01 
4.860971e-01 
5.077951e-01 
5.302410e-01 
5.533640e-01 
5.771005e-01 
6.013939e-01 
6.261931e-01 
6.514521e-01 
6.771303e-01 
7.031915e-01 
7.296037e-01 
7.563379e-01 
7.833679e-01 
8.106703e-01 
8.382238e-01 
8.660090e-01 
8.940084e-01 
1.009378e+00 
9.806568e-01 
9.520365e-01 
9.235681e-01 
8.952692e-01 
8.671537e-01 
8.392361e-01 
8.115318e-01 
7.840578e-01 
7.568324e-01 
7.298762e-01 
7.032114e-01 
6.768634e-01 
6.508600e-01 
6.252328e-01 
6.000168e-01 
5.752514e-01 
5.509801e-01 
5.272517e-01 
5.041204e-01 
4.816467e-01 
4.598977e-01 
4.389495e-01 
4.188879e-01 
3.998085e-01 
3.818154e-01 
3.650225e-01 
3.495530e-01 
3.355387e-01 
3.231183e-01 
3.124345e-01 
3.036291e-01 
2.968391e-01 
2.921912e-01 
2.898032e-01 
2.910856e-01 
2.951340e-01 
3.015934e-01 
3.102986e-01 
3.210823e-01 
3.337709e-01 
3.481864e-01 
3.641568e-01 
3.815224e-01 
4.001379e-01 
4.198722e-01 
4.406085e-01 
4.622427e-01 
4.846823e-01 
5.078456e-01 
5.316601e-01 
5.560614e-01 
5.809924e-01 
6.064019e-01 
6.322448e-01 
6.584814e-01 
6.850768e-01 
7.119997e-01 
7.392219e-01 
7.667185e-01 
7.944668e-01 
8.224465e-01 
8.506392e-01 
8.790285e-01 
9.961482e-01 
9.671053e-01 
9.381529e-01 
9.093390e-01 
8.806800e-01 
8.521888e-01 
8.238788e-01 
7.957643e-01 
7.678612e-01 
7.401867e-01 
7.127601e-01 
6.856029e-01 
6.587393e-01 
6.321965e-01 
6.060052e-01 
5.801998e-01 
5.548191e-01 
5.299066e-01 
5.055109e-01 
4.816867e-01 
4.584955e-01 
4.360063e-01 
4.142977e-01 
3.934590e-01 
3.735914e-01 
3.548070e-01 
3.372292e-01 
3.209939e-01 
3.062484e-01 
2.931497e-01 
2.818614e-01 
2.725480e-01 
2.653690e-01 
2.604726e-01 
2.579958e-01 
2.594022e-01 
2.637082e-01 
2.705836e-01 
2.798495e-01 
2.913097e-01 
3.047585e-01 
3.199886e-01 
3.368042e-01 
3.550271e-01 
3.744980e-01 
3.950755e-01 
4.166352e-01 
4.390680e-01 
4.622782e-01 
4.861821e-01 
5.107062e-01 
5.357858e-01 
5.613638e-01 
5.873899e-01 
6.138206e-01 
6.406174e-01 
6.677466e-01 
6.951780e-01 
7.228848e-01 
7.508431e-01 
7.790315e-01 
8.074309e-01 
8.360240e-01 
8.647954e-01 
9.836422e-01 
9.542884e-01 
9.250138e-01 
8.958641e-01 
8.668543e-01 
8.379963e-01 
8.093022e-01 
7.807852e-01 
7.524597e-01 
7.243419e-01 
6.964498e-01 
6.688037e-01 
6.414266e-01 
6.143447e-01 
5.875874e-01 
5.611883e-01 
5.351851e-01 
5.096204e-01 
4.845424e-01 
4.600057e-01 
4.360725e-01 
4.128131e-01 
3.903081e-01 
3.686497e-01 
3.479442e-01 
3.283113e-01 
3.098848e-01 
2.928139e-01 
2.772631e-01 
2.634109e-01 
2.514462e-01 
2.415611e-01 
2.339430e-01 
2.287668e-01 
2.261940e-01 
2.277234e-01 
2.323130e-01 
2.396589e-01 
2.495613e-01 
2.617853e-01 
2.760840e-01 
2.922148e-01 
3.099547e-01 
3.291051e-01 
3.494920e-01 
3.709636e-01 
3.933889e-01 
4.166544e-01 
4.406620e-01 
4.653268e-01 
4.905752e-01 
5.163429e-01 
5.425739e-01 
5.692198e-01 
5.962387e-01 
6.235939e-01 
6.512529e-01 
6.791874e-01 
7.073718e-01 
7.357839e-01 
7.644036e-01 
7.932132e-01 
8.221966e-01 
8.513397e-01 
9.718877e-01 
9.422353e-01 
9.126501e-01 
8.831759e-01 
8.538265e-01 
8.246124e-01 
7.955446e-01 
7.666348e-01 
7.378963e-01 
7.093438e-01 
6.809939e-01 
6.528655e-01 
6.249803e-01 
5.973630e-01 
5.700417e-01 
5.430482e-01 
5.164188e-01 
4.901947e-01 
4.644231e-01 
4.391578e-01 
4.144608e-01 
3.904029e-01 
3.670662e-01 
3.445452e-01 
3.229503e-01 
3.024083e-01 
2.830633e-01 
2.650788e-01 
2.486386e-01 
2.339458e-01 
2.212194e-01 
2.106863e-01 
2.025684e-01 
1.970751e-01 
1.943983e-01 
1.960486e-01 
2.009537e-01 
2.088372e-01 
2.194695e-01 
2.325626e-01 
2.478164e-01 
2.649461e-01 
2.836978e-01 
3.038510e-01 
3.252167e-01 
3.476338e-01 
3.709653e-01 
3.950948e-01 
4.199230e-01 
4.453651e-01 
4.713483e-01 
4.978097e-01 
5.246958e-01 
5.519604e-01 
5.795639e-01 
6.074716e-01 
6.356529e-01 
6.640812e-01 
6.927331e-01 
7.215878e-01 
7.506269e-01 
7.798343e-01 
8.091954e-01 
8.386973e-01 
9.609149e-01 
9.309754e-01 
9.010921e-01 
8.713063e-01 
8.416301e-01 
8.120727e-01 
7.826438e-01 
7.533536e-01 
7.242141e-01 
6.952384e-01 
6.664416e-01 
6.378412e-01 
6.094572e-01 
5.813124e-01 
5.534330e-01 
5.258490e-01 
4.985943e-01 
4.717084e-01 
4.452364e-01 
4.192307e-01 
3.937520e-01 
3.688710e-01 
3.446698e-01 
3.212444e-01 
2.987079e-01 
2.771932e-01 
2.568546e-01 
2.378703e-01 
2.204447e-01 
2.048096e-01 
1.912203e-01 
1.799468e-01 
1.712552e-01 
1.653991e-01 
1.626095e-01 
1.643770e-01 
1.696367e-01 
1.781422e-01 
1.896209e-01 
2.037109e-01 
2.200436e-01 
2.382839e-01 
2.581432e-01 
2.793784e-01 
3.017866e-01 
3.251986e-01 
3.494737e-01 
3.744940e-01 
4.001609e-01 
4.263910e-01 
4.531137e-01 
4.802693e-01 
5.078074e-01 
5.356848e-01 
5.638644e-01 
5.923140e-01 
6.210056e-01 
6.499146e-01 
6.790198e-01 
7.083024e-01 
7.377459e-01 
7.673358e-01 
7.970592e-01 
8.269047e-01 
9.507393e-01 
9.205176e-01 
8.903493e-01 
8.602666e-01 
8.302789e-01 
8.003936e-01 
7.706189e-01 
7.409640e-01 
7.114389e-01 
6.820556e-01 
6.528274e-01 
6.237701e-01 
5.949016e-01 
5.662428e-01 
5.378174e-01 
5.096527e-01 
4.817803e-01 
4.542366e-01 
4.270643e-01 
4.003132e-01 
3.740419e-01 
3.483190e-01 
3.232257e-01 
2.988578e-01 
2.753297e-01 
2.527785e-01 
2.313673e-01 
2.112886e-01 
1.927693e-01 
1.760730e-01 
1.614993e-01 
1.493725e-01 
1.400158e-01 
1.337407e-01 
1.308286e-01 
1.327078e-01 
1.383709e-01 
1.476063e-01 
1.600797e-01 
1.753232e-01 
1.928801e-01 
2.123560e-01 
2.334252e-01 
2.558229e-01 
2.793347e-01 
3.037862e-01 
3.290355e-01 
3.549660e-01 
3.814817e-01 
4.085026e-01 
4.359623e-01 
4.638055e-01 
4.919855e-01 
5.204628e-01 
5.492036e-01 
5.781789e-01 
6.073634e-01 
6.367352e-01 
6.662753e-01 
6.959674e-01 
7.257969e-01 
7.557512e-01 
7.858190e-01 
8.159903e-01 
9.412507e-01 
9.107883e-01 
8.803591e-01 
8.500018e-01 
8.197246e-01 
7.895340e-01 
7.594368e-01 
7.294406e-01 
6.995542e-01 
6.697875e-01 
6.401525e-01 
6.106626e-01 
5.813339e-01 
5.521843e-01 
5.232351e-01 
4.945104e-01 
4.660384e-01 
4.378522e-01 
4.099909e-01 
3.825006e-01 
3.554362e-01 
3.288631e-01 
3.028595e-01 
2.775191e-01 
2.529555e-01 
2.293068e-01 
2.067425e-01 
1.854680e-01 
1.657325e-01 
1.478352e-01 
1.321283e-01 
1.190072e-01 
1.088692e-01 
1.021046e-01 
9.905915e-02 
1.010377e-01 
1.071648e-01 
1.172700e-01 
1.309299e-01 
1.475212e-01 
1.664732e-01 
1.873236e-01 
2.097095e-01 
2.333484e-01 
2.580187e-01 
2.835457e-01 
3.097897e-01 
3.366388e-01 
3.640024e-01 
3.918064e-01 
4.199904e-01 
4.485045e-01 
4.773068e-01 
5.063622e-01 
5.356408e-01 
5.651173e-01 
5.947698e-01 
6.245796e-01 
6.545303e-01 
6.846079e-01 
7.148001e-01 
7.450959e-01 
7.754859e-01 
8.059616e-01 
9.327592e-01 
9.020543e-01 
8.713760e-01 
8.407565e-01 
8.102031e-01 
7.797212e-01 
7.493162e-01 
7.189943e-01 
6.887627e-01 
6.586300e-01 
6.286061e-01 
5.987025e-01 
5.689325e-01 
5.393116e-01 
5.098576e-01 
4.805912e-01 
4.515366e-01 
4.227228e-01 
3.941843e-01 
3.659626e-01 
3.381075e-01 
3.106791e-01 
2.837506e-01 
2.574108e-01 
2.317693e-01 
2.069622e-01 
1.831606e-01 
1.605791e-01 
1.394869e-01 
1.202203e-01 
1.031945e-01 
8.889905e-02 
7.783011e-02 
7.048612e-02 
6.729458e-02 
6.937100e-02 
7.604302e-02 
8.720813e-02 
1.023145e-01 
1.204990e-01 
1.410446e-01 
1.634172e-01 
1.872235e-01 
2.121716e-01 
2.380410e-01 
2.646628e-01 
2.919054e-01 
3.196654e-01 
3.478610e-01 
3.764268e-01 
4.053096e-01 
4.344660e-01 
4.638599e-01 
4.934613e-01 
5.232447e-01 
5.531890e-01 
5.832757e-01 
6.134894e-01 
6.438166e-01 
6.742456e-01 
7.047664e-01 
7.353700e-01 
7.660488e-01 
7.967959e-01 
9.251883e-01 
8.942635e-01 
8.633549e-01 
8.324931e-01 
8.016844e-01 
7.709328e-01 
7.402426e-01 
7.096188e-01 
6.790671e-01 
6.485944e-01 
6.182088e-01 
5.879195e-01 
5.577373e-01 
5.276745e-01 
4.977453e-01 
4.679665e-01 
4.383580e-01 
4.089440e-01 
3.797537e-01 
3.508226e-01 
3.221940e-01 
2.939211e-01 
2.660689e-01 
2.387185e-01 
2.119715e-01 
1.859571e-01 
1.608416e-01 
1.368417e-01 
1.142406e-01 
9.340908e-02 
7.483243e-02 
5.913030e-02 
4.693164e-02 
3.888956e-02 
3.553638e-02 
3.770343e-02 
4.502295e-02 
5.751155e-02 
7.442643e-02 
9.451404e-02 
1.168790e-01 
1.409251e-01 
1.662457e-01 
1.925552e-01 
2.196463e-01 
2.473649e-01 
2.755939e-01 
3.042438e-01 
3.332449e-01 
3.625421e-01 
3.920911e-01 
4.218560e-01 
4.518073e-01 
4.819208e-01 
5.121761e-01 
5.425561e-01 
5.730463e-01 
6.036345e-01 
6.343099e-01 
6.650636e-01 
6.958875e-01 
7.267748e-01 
7.577195e-01 
7.887162e-01 
9.185462e-01 
8.874203e-01 
8.563015e-01 
8.252190e-01 
7.941778e-01 
7.631808e-01 
7.322313e-01 
7.013330e-01 
6.704904e-01 
6.397088e-01 
6.089943e-01 
5.783539e-01 
5.477956e-01 
5.173285e-01 
4.869629e-01 
4.567116e-01 
4.265898e-01 
3.966163e-01 
3.668144e-01 
3.372129e-01 
3.078470e-01 
2.787607e-01 
2.500086e-01 
2.216599e-01 
1.938033e-01 
1.665545e-01 
1.400667e-01 
1.145471e-01 
9.027970e-02 
6.765816e-02 
4.723412e-02 
2.981596e-02 
1.621625e-02 
7.317325e-03 
3.785929e-03 
6.035219e-03 
1.413849e-02 
2.833339e-02 
4.758304e-02 
6.995715e-02 
9.437228e-02 
1.202174e-01 
1.471094e-01 
1.747934e-01 
2.030910e-01 
2.318738e-01 
2.610467e-01 
2.905383e-01 
3.202936e-01 
3.502697e-01 
3.804324e-01 
4.107543e-01 
4.412132e-01 
4.717907e-01 
5.024717e-01 
5.332434e-01 
5.640953e-01 
5.950181e-01 
6.260042e-01 
6.570467e-01 
6.881401e-01 
7.192792e-01 
7.504595e-01 
7.816774e-01 
9.128755e-01 
8.815693e-01 
8.502616e-01 
8.189809e-01 
7.877312e-01 
7.565146e-01 
7.253335e-01 
6.941905e-01 
6.630891e-01 
6.320329e-01 
6.010263e-01 
5.700740e-01 
5.391811e-01 
5.083536e-01 
4.775982e-01 
4.469234e-01 
4.163395e-01 
3.858602e-01 
3.555023e-01 
3.252871e-01 
2.952410e-01 
2.653970e-01 
2.357969e-01 
2.064940e-01 
1.775586e-01 
1.490845e-01 
1.212004e-01 
9.408794e-02 
6.800985e-02 
4.335434e-02 
2.069223e-02 
1.217781e-03 
-1.380629e-02 
-2.359899e-02 
-2.751453e-02 
-2.470290e-02 
-1.537551e-02 
6.576630e-04 
2.234682e-02 
4.744965e-02 
7.409461e-02 
1.017910e-01 
1.302404e-01 
1.592490e-01 
1.886850e-01 
2.184555e-01 
2.484927e-01 
2.787463e-01 
3.091779e-01 
3.397579e-01 
3.704628e-01 
4.012741e-01 
4.321766e-01 
4.631581e-01 
4.942083e-01 
5.253187e-01 
5.564823e-01 
5.876930e-01 
6.189456e-01 
6.502357e-01 
6.815594e-01 
7.129135e-01 
7.442949e-01 
7.757012e-01 
9.082238e-01 
8.767590e-01 
8.452844e-01 
8.138287e-01 
7.823956e-01 
7.509866e-01 
7.196032e-01 
6.882475e-01 
6.569216e-01 
6.256280e-01 
5.943694e-01 
5.631483e-01 
5.319675e-01 
5.008297e-01 
4.697384e-01 
4.386980e-01 
4.077146e-01 
3.767966e-01 
3.459549e-01 
3.152032e-01 
2.845588e-01 
2.540431e-01 
2.236834e-01 
1.935147e-01 
1.635833e-01 
1.339531e-01 
1.047142e-01 
7.600006e-02 
4.801919e-02 
2.112465e-02 
-3.495145e-03 
-2.418317e-02 
-4.083875e-02 
-5.294295e-02 
-5.871883e-02 
-5.392056e-02 
-4.151040e-02 
-2.348815e-02 
3.598710e-04 
2.802014e-02 
5.684085e-02 
8.627754e-02 
1.161488e-01 
1.463401e-01 
1.767749e-01 
2.073996e-01 
2.381755e-01 
2.690743e-01 
3.000741e-01 
3.311584e-01 
3.623138e-01 
3.935299e-01 
4.247983e-01 
4.561118e-01 
4.874649e-01 
5.188526e-01 
5.502710e-01 
5.817166e-01 
6.131864e-01 
6.446780e-01 
6.761891e-01 
7.077178e-01 
7.392624e-01 
7.708214e-01 
9.046606e-01 
8.730591e-01 
8.414392e-01 
8.098320e-01 
7.782410e-01 
7.466672e-01 
7.151117e-01 
6.835758e-01 
6.520610e-01 
6.205686e-01 
5.891000e-01 
5.576559e-01 
5.262369e-01 
4.948432e-01 