# vtk DataFile Version 2.0 
Quadtree Mesh 
ASCII 
DATASET UNSTRUCTURED_GRID 
POINTS 4096 double 
-1.000000e+00 -1.000000e+00 0.000000e+00
-9.682540e-01 -1.000000e+00 0.000000e+00
-9.365079e-01 -1.000000e+00 0.000000e+00
-9.047619e-01 -1.000000e+00 0.000000e+00
-8.730159e-01 -1.000000e+00 0.000000e+00
-8.412698e-01 -1.000000e+00 0.000000e+00
-8.095238e-01 -1.000000e+00 0.000000e+00
-7.777778e-01 -1.000000e+00 0.000000e+00
-7.460317e-01 -1.000000e+00 0.000000e+00
-7.142857e-01 -1.000000e+00 0.000000e+00
-6.825397e-01 -1.000000e+00 0.000000e+00
-6.507937e-01 -1.000000e+00 0.000000e+00
-6.190476e-01 -1.000000e+00 0.000000e+00
-5.873016e-01 -1.000000e+00 0.000000e+00
-5.555556e-01 -1.000000e+00 0.000000e+00
-5.238095e-01 -1.000000e+00 0.000000e+00
-4.920635e-01 -1.000000e+00 0.000000e+00
-4.603175e-01 -1.000000e+00 0.000000e+00
-4.285714e-01 -1.000000e+00 0.000000e+00
-3.968254e-01 -1.000000e+00 0.000000e+00
-3.650794e-01 -1.000000e+00 0.000000e+00
-3.333333e-01 -1.000000e+00 0.000000e+00
-3.015873e-01 -1.000000e+00 0.000000e+00
-2.698413e-01 -1.000000e+00 0.000000e+00
-2.380952e-01 -1.000000e+00 0.000000e+00
-2.063492e-01 -1.000000e+00 0.000000e+00
-1.746032e-01 -1.000000e+00 0.000000e+00
-1.428571e-01 -1.000000e+00 0.000000e+00
-1.111111e-01 -1.000000e+00 0.000000e+00
-7.936508e-02 -1.000000e+00 0.000000e+00
-4.761905e-02 -1.000000e+00 0.000000e+00
-1.587302e-02 -1.000000e+00 0.000000e+00
1.587302e-02 -1.000000e+00 0.000000e+00
4.761905e-02 -1.000000e+00 0.000000e+00
7.936508e-02 -1.000000e+00 0.000000e+00
1.111111e-01 -1.000000e+00 0.000000e+00
1.428571e-01 -1.000000e+00 0.000000e+00
1.746032e-01 -1.000000e+00 0.000000e+00
2.063492e-01 -1.000000e+00 0.000000e+00
2.380952e-01 -1.000000e+00 0.000000e+00
2.698413e-01 -1.000000e+00 0.000000e+00
3.015873e-01 -1.000000e+00 0.000000e+00
3.333333e-01 -1.000000e+00 0.000000e+00
3.650794e-01 -1.000000e+00 0.000000e+00
3.968254e-01 -1.000000e+00 0.000000e+00
4.285714e-01 -1.000000e+00 0.000000e+00
4.603175e-01 -1.000000e+00 0.000000e+00
4.920635e-01 -1.000000e+00 0.000000e+00
5.238095e-01 -1.000000e+00 0.000000e+00
5.555556e-01 -1.000000e+00 0.000000e+00
5.873016e-01 -1.000000e+00 0.000000e+00
6.190476e-01 -1.000000e+00 0.000000e+00
6.507937e-01 -1.000000e+00 0.000000e+00
6.825397e-01 -1.000000e+00 0.000000e+00
7.142857e-01 -1.000000e+00 0.000000e+00
7.460317e-01 -1.000000e+00 0.000000e+00
7.777778e-01 -1.000000e+00 0.000000e+00
8.095238e-01 -1.000000e+00 0.000000e+00
8.412698e-01 -1.000000e+00 0.000000e+00
8.730159e-01 -1.000000e+00 0.000000e+00
9.047619e-01 -1.000000e+00 0.000000e+00
9.365079e-01 -1.000000e+00 0.000000e+00
9.682540e-01 -1.000000e+00 0.000000e+00
1.000000e+00 -1.000000e+00 0.000000e+00
-1.000000e+00 -9.682540e-01 0.000000e+00
-9.682540e-01 -9.682540e-01 0.000000e+00
-9.365079e-01 -9.682540e-01 0.000000e+00
-9.047619e-01 -9.682540e-01 0.000000e+00
-8.730159e-01 -9.682540e-01 0.000000e+00
-8.412698e-01 -9.682540e-01 0.000000e+00
-8.095238e-01 -9.682540e-01 0.000000e+00
-7.777778e-01 -9.682540e-01 0.000000e+00
-7.460317e-01 -9.682540e-01 0.000000e+00
-7.142857e-01 -9.682540e-01 0.000000e+00
-6.825397e-01 -9.682540e-01 0.000000e+00
-6.507937e-01 -9.682540e-01 0.000000e+00
-6.190476e-01 -9.682540e-01 0.000000e+00
-5.873016e-01 -9.682540e-01 0.000000e+00
-5.555556e-01 -9.682540e-01 0.000000e+00
-5.238095e-01 -9.682540e-01 0.000000e+00
-4.920635e-01 -9.682540e-01 0.000000e+00
-4.603175e-01 -9.682540e-01 0.000000e+00
-4.285714e-01 -9.682540e-01 0.000000e+00
-3.968254e-01 -9.682540e-01 0.000000e+00
-3.650794e-01 -9.682540e-01 0.000000e+00
-3.333333e-01 -9.682540e-01 0.000000e+00
-3.015873e-01 -9.682540e-01 0.000000e+00
-2.698413e-01 -9.682540e-01 0.000000e+00
-2.380952e-01 -9.682540e-01 0.000000e+00
-2.063492e-01 -9.682540e-01 0.000000e+00
-1.746032e-01 -9.682540e-01 0.000000e+00
-1.428571e-01 -9.682540e-01 0.000000e+00
-1.111111e-01 -9.682540e-01 0.000000e+00
-7.936508e-02 -9.682540e-01 0.000000e+00
-4.761905e-02 -9.682540e-01 0.000000e+00
-1.587302e-02 -9.682540e-01 0.000000e+00
1.587302e-02 -9.682540e-01 0.000000e+00
4.761905e-02 -9.682540e-01 0.000000e+00
7.936508e-02 -9.682540e-01 0.000000e+00
1.111111e-01 -9.682540e-01 0.000000e+00
1.428571e-01 -9.682540e-01 0.000000e+00
1.746032e-01 -9.682540e-01 0.000000e+00
2.063492e-01 -9.682540e-01 0.000000e+00
2.380952e-01 -9.682540e-01 0.000000e+00
2.698413e-01 -9.682540e-01 0.000000e+00
3.015873e-01 -9.682540e-01 0.000000e+00
3.333333e-01 -9.682540e-01 0.000000e+00
3.650794e-01 -9.682540e-01 0.000000e+00
3.968254e-01 -9.682540e-01 0.000000e+00
4.285714e-01 -9.682540e-01 0.000000e+00
4.603175e-01 -9.682540e-01 0.000000e+00
4.920635e-01 -9.682540e-01 0.000000e+00
5.238095e-01 -9.682540e-01 0.000000e+00
5.555556e-01 -9.682540e-01 0.000000e+00
5.873016e-01 -9.682540e-01 0.000000e+00
6.190476e-01 -9.682540e-01 0.000000e+00
6.507937e-01 -9.682540e-01 0.000000e+00
6.825397e-01 -9.682540e-01 0.000000e+00
7.142857e-01 -9.682540e-01 0.000000e+00
7.460317e-01 -9.682540e-01 0.000000e+00
7.777778e-01 -9.682540e-01 0.000000e+00
8.095238e-01 -9.682540e-01 0.000000e+00
8.412698e-01 -9.682540e-01 0.000000e+00
8.730159e-01 -9.682540e-01 0.000000e+00
9.047619e-01 -9.682540e-01 0.000000e+00
9.365079e-01 -9.682540e-01 0.000000e+00
9.682540e-01 -9.682540e-01 0.000000e+00
1.000000e+00 -9.682540e-01 0.000000e+00
-1.000000e+00 -9.365079e-01 0.000000e+00
-9.682540e-01 -9.365079e-01 0.000000e+00
-9.365079e-01 -9.365079e-01 0.000000e+00
-9.047619e-01 -9.365079e-01 0.000000e+00
-8.730159e-01 -9.365079e-01 0.000000e+00
-8.412698e-01 -9.365079e-01 0.000000e+00
-8.095238e-01 -9.365079e-01 0.000000e+00
-7.777778e-01 -9.365079e-01 0.000000e+00
-7.460317e-01 -9.365079e-01 0.000000e+00
-7.142857e-01 -9.365079e-01 0.000000e+00
-6.825397e-01 -9.365079e-01 0.000000e+00
-6.507937e-01 -9.365079e-01 0.000000e+00
-6.190476e-01 -9.365079e-01 0.000000e+00
-5.873016e-01 -9.365079e-01 0.000000e+00
-5.555556e-01 -9.365079e-01 0.000000e+00
-5.238095e-01 -9.365079e-01 0.000000e+00
-4.920635e-01 -9.365079e-01 0.000000e+00
-4.603175e-01 -9.365079e-01 0.000000e+00
-4.285714e-01 -9.365079e-01 0.000000e+00
-3.968254e-01 -9.365079e-01 0.000000e+00
-3.650794e-01 -9.365079e-01 0.000000e+00
-3.333333e-01 -9.365079e-01 0.000000e+00
-3.015873e-01 -9.365079e-01 0.000000e+00
-2.698413e-01 -9.365079e-01 0.000000e+00
-2.380952e-01 -9.365079e-01 0.000000e+00
-2.063492e-01 -9.365079e-01 0.000000e+00
-1.746032e-01 -9.365079e-01 0.000000e+00
-1.428571e-01 -9.365079e-01 0.000000e+00
-1.111111e-01 -9.365079e-01 0.000000e+00
-7.936508e-02 -9.365079e-01 0.000000e+00
-4.761905e-02 -9.365079e-01 0.000000e+00
-1.587302e-02 -9.365079e-01 0.000000e+00
1.587302e-02 -9.365079e-01 0.000000e+00
4.761905e-02 -9.365079e-01 0.000000e+00
7.936508e-02 -9.365079e-01 0.000000e+00
1.111111e-01 -9.365079e-01 0.000000e+00
1.428571e-01 -9.365079e-01 0.000000e+00
1.746032e-01 -9.365079e-01 0.000000e+00
2.063492e-01 -9.365079e-01 0.000000e+00
2.380952e-01 -9.365079e-01 0.000000e+00
2.698413e-01 -9.365079e-01 0.000000e+00
3.015873e-01 -9.365079e-01 0.000000e+00
3.333333e-01 -9.365079e-01 0.000000e+00
3.650794e-01 -9.365079e-01 0.000000e+00
3.968254e-01 -9.365079e-01 0.000000e+00
4.285714e-01 -9.365079e-01 0.000000e+00
4.603175e-01 -9.365079e-01 0.000000e+00
4.920635e-01 -9.365079e-01 0.000000e+00
5.238095e-01 -9.365079e-01 0.000000e+00
5.555556e-01 -9.365079e-01 0.000000e+00
5.873016e-01 -9.365079e-01 0.000000e+00
6.190476e-01 -9.365079e-01 0.000000e+00
6.507937e-01 -9.365079e-01 0.000000e+00
6.825397e-01 -9.365079e-01 0.000000e+00
7.142857e-01 -9.365079e-01 0.000000e+00
7.460317e-01 -9.365079e-01 0.000000e+00
7.777778e-01 -9.365079e-01 0.000000e+00
8.095238e-01 -9.365079e-01 0.000000e+00
8.412698e-01 -9.365079e-01 0.000000e+00
8.730159e-01 -9.365079e-01 0.000000e+00
9.047619e-01 -9.365079e-01 0.000000e+00
9.365079e-01 -9.365079e-01 0.000000e+00
9.682540e-01 -9.365079e-01 0.000000e+00
1.000000e+00 -9.365079e-01 0.000000e+00
-1.000000e+00 -9.047619e-01 0.000000e+00
-9.682540e-01 -9.047619e-01 0.000000e+00
-9.365079e-01 -9.047619e-01 0.000000e+00
-9.047619e-01 -9.047619e-01 0.000000e+00
-8.730159e-01 -9.047619e-01 0.000000e+00
-8.412698e-01 -9.047619e-01 0.000000e+00
-8.095238e-01 -9.047619e-01 0.000000e+00
-7.777778e-01 -9.047619e-01 0.000000e+00
-7.460317e-01 -9.047619e-01 0.000000e+00
-7.142857e-01 -9.047619e-01 0.000000e+00
-6.825397e-01 -9.047619e-01 0.000000e+00
-6.507937e-01 -9.047619e-01 0.000000e+00
-6.190476e-01 -9.047619e-01 0.000000e+00
-5.873016e-01 -9.047619e-01 0.000000e+00
-5.555556e-01 -9.047619e-01 0.000000e+00
-5.238095e-01 -9.047619e-01 0.000000e+00
-4.920635e-01 -9.047619e-01 0.000000e+00
-4.603175e-01 -9.047619e-01 0.000000e+00
-4.285714e-01 -9.047619e-01 0.000000e+00
-3.968254e-01 -9.047619e-01 0.000000e+00
-3.650794e-01 -9.047619e-01 0.000000e+00
-3.333333e-01 -9.047619e-01 0.000000e+00
-3.015873e-01 -9.047619e-01 0.000000e+00
-2.698413e-01 -9.047619e-01 0.000000e+00
-2.380952e-01 -9.047619e-01 0.000000e+00
-2.063492e-01 -9.047619e-01 0.000000e+00
-1.746032e-01 -9.047619e-01 0.000000e+00
-1.428571e-01 -9.047619e-01 0.000000e+00
-1.111111e-01 -9.047619e-01 0.000000e+00
-7.936508e-02 -9.047619e-01 0.000000e+00
-4.761905e-02 -9.047619e-01 0.000000e+00
-1.587302e-02 -9.047619e-01 0.000000e+00
1.587302e-02 -9.047619e-01 0.000000e+00
4.761905e-02 -9.047619e-01 0.000000e+00
7.936508e-02 -9.047619e-01 0.000000e+00
1.111111e-01 -9.047619e-01 0.000000e+00
1.428571e-01 -9.047619e-01 0.000000e+00
1.746032e-01 -9.047619e-01 0.000000e+00
2.063492e-01 -9.047619e-01 0.000000e+00
2.380952e-01 -9.047619e-01 0.000000e+00
2.698413e-01 -9.047619e-01 0.000000e+00
3.015873e-01 -9.047619e-01 0.000000e+00
3.333333e-01 -9.047619e-01 0.000000e+00
3.650794e-01 -9.047619e-01 0.000000e+00
3.968254e-01 -9.047619e-01 0.000000e+00
4.285714e-01 -9.047619e-01 0.000000e+00
4.603175e-01 -9.047619e-01 0.000000e+00
4.920635e-01 -9.047619e-01 0.000000e+00
5.238095e-01 -9.047619e-01 0.000000e+00
5.555556e-01 -9.047619e-01 0.000000e+00
5.873016e-01 -9.047619e-01 0.000000e+00
6.190476e-01 -9.047619e-01 0.000000e+00
[...]
POINT_DATA 4096 
SCALARS concentration double 1 
LOOKUP_TABLE default 
1.478859e+00 
1.457476e+00 
1.436405e+00 
1.415668e+00 
1.395277e+00 
1.375244e+00 
1.355584e+00 
1.336311e+00 
1.317442e+00 
1.298992e+00 
1.280978e+00 
1.263418e+00 
1.246331e+00 
1.229734e+00 
1.213647e+00 
1.198087e+00 
1.183071e+00 
1.168617e+00 
1.154742e+00 
1.141467e+00 
1.128811e+00 
1.116792e+00 
1.105432e+00 
1.094753e+00 
1.084773e+00 
1.075513e+00 
1.066993e+00 
1.059232e+00 
1.052247e+00 
1.046056e+00 
1.040674e+00 
1.036117e+00 
1.032399e+00 
1.029533e+00 
1.027526e+00 
1.026390e+00 
1.026236e+00 
1.027283e+00 
1.029501e+00 
1.032802e+00 
1.037096e+00 
1.042311e+00 
1.048399e+00 
1.055324e+00 
1.063058e+00 
1.071578e+00 
1.080863e+00 
1.090892e+00 
1.101645e+00 
1.113101e+00 
1.125240e+00 
1.138040e+00 
1.151481e+00 
1.165542e+00 
1.180199e+00 
1.195431e+00 
1.211220e+00 
1.227545e+00 
1.244387e+00 
1.261727e+00 
1.279548e+00 
1.297830e+00 
1.316557e+00 
1.335713e+00 
1.455430e+00 
1.433752e+00 
1.412383e+00 
1.391346e+00 
1.370651e+00 
1.350311e+00 
1.330343e+00 
1.310760e+00 
1.291579e+00 
1.272816e+00 
1.254488e+00 
1.236613e+00 
1.219211e+00 
1.202301e+00 
1.185902e+00 
1.170035e+00 
1.154715e+00 
1.139963e+00 
1.125798e+00 
1.112238e+00 
1.099305e+00 
1.087019e+00 
1.075401e+00 
1.064475e+00 
1.054261e+00 
1.044781e+00 
1.036056e+00 
1.028106e+00 
1.020950e+00 
1.014607e+00 
1.009093e+00 
1.004425e+00 
1.000618e+00 
9.976849e-01 
9.956351e-01 
9.944807e-01 
9.943533e-01 
9.954778e-01 
9.978034e-01 
1.001229e+00 
1.005659e+00 
1.011023e+00 
1.017273e+00 
1.024375e+00 
1.032301e+00 
1.041029e+00 
1.050536e+00 
1.060800e+00 
1.071802e+00 
1.083518e+00 
1.095926e+00 
1.109006e+00 
1.122734e+00 
1.137088e+00 
1.152044e+00 
1.167581e+00 
1.183678e+00 
1.200314e+00 
1.217470e+00 
1.235125e+00 
1.253262e+00 
1.271861e+00 
1.290904e+00 
1.310375e+00 
1.432281e+00 
1.410303e+00 
1.388632e+00 
1.367289e+00 
1.346284e+00 
1.325633e+00 
1.305350e+00 
1.285450e+00 
1.265950e+00 
1.246866e+00 
1.228216e+00 
1.210019e+00 
1.192294e+00 
1.175061e+00 
1.158341e+00 
1.142154e+00 
1.126521e+00 
1.111460e+00 
1.096991e+00 
1.083136e+00 
1.069914e+00 
1.057350e+00 
1.045464e+00 
1.034280e+00 
1.023821e+00 
1.014111e+00 
1.005171e+00 
9.970230e-01 
9.896875e-01 
9.831843e-01 
9.775316e-01 
9.727465e-01 
9.688457e-01 
9.658428e-01 
9.637472e-01 
9.625722e-01 
9.624746e-01 
9.636813e-01 
9.661180e-01 
9.696703e-01 
9.742395e-01 
9.797563e-01 
9.861740e-01 
9.934592e-01 
1.001585e+00 
1.010528e+00 
1.020266e+00 
1.030775e+00 
1.042034e+00 
1.054019e+00 
1.066707e+00 
1.080074e+00 
1.094099e+00 
1.108755e+00 
1.124018e+00 
1.139867e+00 
1.156280e+00 
1.173234e+00 
1.190710e+00 
1.208687e+00 
1.227145e+00 
1.246065e+00 
1.265429e+00 
1.285219e+00 
1.409419e+00 
1.387138e+00 
1.365161e+00 
1.343506e+00 
1.322187e+00 
1.301218e+00 
1.280613e+00 
1.260390e+00 
1.240563e+00 
1.221151e+00 
1.202172e+00 
1.183644e+00 
1.165587e+00 
1.148022e+00 
1.130970e+00 
1.114455e+00 
1.098496e+00 
1.083115e+00 
1.068331e+00 
1.054168e+00 
1.040647e+00 
1.027792e+00 
1.015626e+00 
1.004173e+00 
9.934586e-01 
9.835068e-01 
9.743414e-01 
9.659856e-01 
9.584615e-01 
9.517902e-01 
9.459914e-01 
9.410834e-01 
9.370838e-01 
9.340071e-01 
9.318633e-01 
9.306664e-01 
9.306032e-01 
9.318974e-01 
9.344490e-01 
9.381314e-01 
9.428438e-01 
9.485183e-01 
9.551102e-01 
9.625868e-01 
9.709216e-01 
9.800902e-01 
9.900688e-01 
1.000834e+00 
1.012361e+00 
1.024626e+00 
1.037604e+00 
1.051272e+00 
1.065603e+00 
1.080572e+00 
1.096154e+00 
1.112325e+00 
1.129063e+00 
1.146345e+00 
1.164150e+00 
1.182456e+00 
1.201243e+00 
1.220491e+00 
1.240182e+00 
1.260297e+00 
1.386859e+00 
1.364270e+00 
1.341981e+00 
1.320010e+00 
1.298371e+00 
1.277077e+00 
1.256146e+00 
1.235591e+00 
1.215431e+00 
1.195683e+00 
1.176366e+00 
1.157498e+00 
1.139101e+00 
1.121195e+00 
1.103803e+00 
1.086947e+00 
1.070651e+00 
1.054937e+00 
1.039828e+00 
1.025345e+00 
1.011511e+00 
9.983530e-01 
9.858941e-01 
9.741603e-01 
9.631781e-01 
9.529732e-01 
9.435711e-01 
9.349968e-01 
9.272742e-01 
9.204260e-01 
9.144732e-01 
9.094356e-01 
9.053320e-01 
9.021775e-01 
8.999829e-01 
8.987629e-01 
8.987393e-01 
9.001263e-01 
9.027966e-01 
9.066125e-01 
9.114725e-01 
9.173109e-01 
9.240846e-01 
9.317618e-01 
9.403155e-01 
9.497205e-01 
9.599518e-01 
9.709842e-01 
9.827921e-01 
9.953496e-01 
1.008631e+00 
1.022609e+00 
1.037259e+00 
1.052553e+00 
1.068464e+00 
1.084969e+00 
1.102042e+00 
1.119662e+00 
1.137805e+00 
1.156449e+00 
1.175573e+00 
1.195158e+00 
1.215184e+00 
1.235631e+00 
1.364612e+00 
1.341711e+00 
1.319106e+00 
1.296814e+00 
1.274849e+00 
1.253225e+00 
1.231960e+00 
1.211068e+00 
1.190567e+00 
1.170475e+00 
1.150812e+00 
1.131596e+00 
1.112849e+00 
1.094592e+00 
1.076849e+00 
1.059643e+00 
1.042998e+00 
1.026940e+00 
1.011491e+00 
9.966747e-01 
9.825164e-01 
9.690416e-01 
9.562767e-01 
9.442488e-01 
9.329858e-01 
9.225152e-01 
9.128645e-01 
9.040604e-01 
8.961286e-01 
8.890937e-01 
8.829785e-01 
8.778042e-01 
8.735907e-01 
8.703541e-01 
8.681059e-01 
8.668616e-01 
8.668830e-01 
8.683682e-01 
8.711607e-01 
8.751138e-01 
8.801265e-01 
8.861356e-01 
8.930998e-01 
9.009876e-01 
9.097714e-01 
9.194247e-01 
9.299211e-01 
9.412337e-01 
9.533352e-01 
9.661981e-01 
9.797946e-01 
9.940970e-01 
1.009078e+00 
1.024708e+00 
1.040961e+00 
1.057810e+00 
1.075231e+00 
1.093198e+00 
1.111688e+00 
1.130680e+00 
1.150151e+00 
1.170080e+00 
1.190448e+00 
1.211234e+00 
1.342692e+00 
1.319475e+00 
1.296549e+00 
1.273931e+00 
1.251634e+00 
1.229675e+00 
1.208069e+00 
1.186832e+00 
1.165984e+00 
1.145540e+00 
1.125522e+00 
1.105949e+00 
1.086843e+00 
1.068226e+00 
1.050122e+00 
1.032554e+00 
1.015550e+00 
9.991340e-01 
9.833322e-01 
9.681695e-01 
9.536721e-01 
9.398669e-01 
9.267818e-01 
9.144458e-01 
9.028884e-01 
8.921389e-01 
8.822266e-01 
8.731804e-01 
8.650281e-01 
8.577962e-01 
8.515095e-01 
8.461907e-01 
8.418611e-01 
8.385378e-01 
8.362331e-01 
8.349631e-01 
8.350351e-01 
8.366232e-01 
8.395413e-01 
8.436355e-01 
8.488066e-01 
8.549943e-01 
8.621587e-01 
8.702682e-01 
8.792942e-01 
8.892088e-01 
8.999838e-01 
9.115903e-01 
9.239992e-01 
9.371813e-01 
9.511068e-01 
9.657466e-01 
9.810715e-01 
9.970515e-01 
1.013658e+00 
1.030863e+00 
1.048641e+00 
1.066966e+00 
1.085815e+00 
1.105163e+00 
1.124989e+00 
1.145271e+00 
1.165988e+00 
1.187121e+00 
1.321123e+00 
1.297584e+00 
1.274332e+00 
1.251381e+00 
1.228747e+00 
1.206445e+00 
1.184492e+00 
1.162903e+00 
1.141698e+00 
1.120895e+00 
1.100513e+00 
1.080574e+00 
1.061100e+00 
1.042112e+00 
1.023636e+00 
1.005696e+00 
9.883190e-01 
9.715327e-01 
9.553640e-01 
9.398402e-01 
9.249888e-01 
9.108383e-01 
8.974183e-01 
8.847594e-01 
8.728930e-01 
8.618503e-01 
8.516626e-01 
8.423612e-01 
8.339763e-01 
8.265365e-01 
8.200686e-01 
8.145972e-01 
8.101450e-01 
8.067300e-01 
8.043658e-01 
8.030691e-01 
8.031971e-01 
8.048924e-01 
8.079391e-01 
8.121789e-01 
8.175150e-01 
8.238903e-01 
8.312658e-01 
8.396095e-01 
8.488914e-01 
8.590817e-01 
8.701499e-01 
8.820654e-01 
8.947968e-01 
9.083129e-01 
9.225822e-01 
9.375736e-01 
9.532565e-01 
9.695993e-01 
9.865718e-01 
1.004145e+00 
1.022293e+00 
1.040987e+00 
1.060204e+00 
1.079920e+00 
1.100110e+00 
1.120753e+00 
1.141828e+00 
1.163314e+00 
1.299914e+00 
1.276049e+00 
1.252467e+00 
1.229179e+00 
1.206203e+00 
1.183553e+00 
1.161245e+00 
1.139299e+00 
1.117730e+00 
1.096560e+00 
1.075807e+00 
1.055493e+00 
1.035640e+00 
1.016272e+00 
9.974133e-01 
9.790899e-01 
9.613293e-01 
9.441600e-01 
9.276116e-01 
9.117134e-01 
8.964944e-01 
8.819848e-01 
8.682159e-01 
8.552201e-01 
8.430305e-01 
8.316805e-01 
8.212037e-01 
8.116340e-01 
8.030039e-01 
7.953446e-01 
7.886852e-01 
7.830526e-01 
7.784707e-01 
7.749592e-01 
7.725327e-01 
7.712087e-01 
7.713853e-01 
7.731786e-01 
7.763517e-01 
7.807399e-01 
7.862479e-01 
7.928206e-01 
8.004194e-01 
8.090112e-01 
8.185641e-01 
8.290461e-01 
8.404245e-01 
8.526663e-01 
8.657378e-01 
8.796055e-01 
8.942361e-01 
9.095965e-01 
9.256542e-01 
9.423760e-01 
9.597302e-01 
9.776869e-01 
9.962179e-01 
1.015296e+00 
1.034895e+00 
1.054989e+00 
1.075556e+00 
1.096571e+00 
1.118014e+00 
1.139864e+00 
1.279066e+00 
1.254871e+00 
1.230955e+00 
1.207329e+00 
1.184006e+00 
1.161004e+00 
1.138338e+00 
1.116027e+00 
1.094088e+00 
1.072542e+00 
1.051409e+00 
1.030710e+00 
1.010469e+00 
9.907089e-01 
9.714559e-01 
9.527366e-01 
9.345789e-01 
9.170127e-01 
9.000691e-01 
8.837795e-01 
8.681754e-01 
8.532888e-01 
8.391528e-01 
8.258017e-01 
8.132706e-01 
8.015953e-01 
7.908120e-01 
7.809571e-01 
7.720660e-01 
7.641728e-01 
7.573091e-01 
7.515040e-01 
7.467841e-01 
7.431702e-01 
7.406780e-01 
7.393258e-01 
7.395683e-01 
7.414764e-01 
7.447862e-01 
7.493314e-01 
7.550213e-01 
7.618036e-01 
7.696397e-01 
7.784951e-01 
7.883357e-01 
7.991266e-01 
8.108325e-01 
8.234177e-01 
8.368461e-01 
8.510820e-01 
8.660898e-01 
8.818345e-01 
8.982818e-01 
9.153964e-01 
9.331457e-01 
9.514987e-01 
9.704259e-01 
9.898989e-01 
1.009891e+00 
1.030375e+00 
1.051328e+00 
1.072726e+00 
1.094547e+00 
1.116769e+00 
1.258601e+00 
1.234075e+00 
1.209823e+00 
1.185853e+00 
1.162181e+00 
1.138821e+00 
1.115791e+00 
1.093109e+00 
1.070793e+00 
1.048864e+00 
1.027342e+00 
1.006249e+00 
9.856093e-01 
9.654469e-01 
9.457881e-01 
9.266604e-01 
9.080928e-01 
8.901161e-01 
8.727626e-01 
8.560660e-01 
8.400600e-01 
8.247789e-01 
8.102577e-01 
7.965329e-01 
7.836420e-01 
7.716235e-01 
7.605162e-01 
7.503592e-01 
7.411913e-01 
7.330494e-01 
7.259683e-01 
7.199798e-01 
7.151125e-01 
7.113891e-01 
7.088264e-01 
7.074441e-01 
7.077578e-01 
7.097840e-01 
7.132336e-01 
7.179415e-01 
7.238222e-01 
7.308256e-01 
7.389127e-01 
7.480470e-01 
7.581913e-01 
7.693079e-01 
7.813583e-01 
7.943038e-01 
8.081057e-01 
8.227256e-01 
8.381257e-01 
8.542691e-01 
8.711193e-01 
8.886395e-01 
9.067956e-01 
9.255557e-01 
9.448888e-01 
9.647657e-01 
9.851582e-01 
1.006040e+00 
1.027385e+00 
1.049170e+00 
1.071373e+00 
1.093971e+00 
1.238538e+00 
1.213680e+00 
1.189087e+00 
1.164771e+00 
1.140744e+00 
1.117022e+00 
1.093623e+00 
1.070564e+00 
1.047864e+00 
1.025545e+00 
1.003625e+00 
9.821296e-01 
9.610811e-01 
9.405052e-01 
9.204287e-01 
9.008799e-01 
8.818890e-01 
8.634875e-01 
8.457090e-01 
8.285889e-01 
8.121636e-01 
7.964695e-01 
7.815443e-01 
7.674266e-01 
7.541566e-01 
7.417755e-01 
7.303252e-01 
7.198480e-01 
7.103858e-01 
7.019794e-01 
6.946666e-01 
6.884825e-01 
6.834581e-01 
6.796181e-01 
6.769808e-01 
6.755672e-01 
6.759578e-01 
6.781055e-01 
6.816989e-01 
6.865766e-01 
6.926588e-01 
6.998970e-01 
7.082513e-01 
7.176821e-01 
7.281490e-01 
7.396108e-01 
7.520253e-01 
7.653506e-01 
7.795451e-01 
7.945675e-01 
8.103778e-01 
8.269366e-01 
8.442055e-01 
8.621461e-01 
8.807231e-01 
8.999030e-01 
9.196540e-01 
9.399455e-01 
9.607487e-01 
9.820361e-01 
1.003782e+00 
1.025961e+00 
1.048552e+00 
1.071531e+00 
1.218896e+00 
1.193702e+00 
1.168767e+00 
1.144099e+00 
1.119714e+00 
1.095627e+00 
1.071853e+00 
1.048412e+00 
1.025322e+00 
1.002604e+00 
9.802797e-01 
9.583718e-01 
9.369047e-01 
9.159043e-01 
8.953982e-01 
8.754156e-01 
8.559874e-01 
8.371463e-01 
8.189272e-01 
8.013669e-01 
7.845040e-01 
7.683779e-01 
7.530286e-01 
7.384976e-01 
7.248277e-01 
7.120631e-01 
7.002493e-01 
6.894319e-01 
6.796567e-01 
6.709681e-01 
6.634080e-01 
6.570148e-01 
6.518226e-01 
6.478583e-01 
6.451418e-01 
6.436960e-01 
6.441691e-01 
6.464411e-01 
6.501827e-01 
6.552385e-01 
6.615344e-01 
6.690228e-01 
6.776619e-01 
6.874087e-01 
6.982188e-01 
7.100467e-01 
7.228467e-01 
7.365730e-01 
7.511806e-01 
7.666256e-01 
7.828649e-01 
7.998572e-01 
8.175617e-01 
8.359386e-01 
8.549511e-01 
8.745644e-01 
8.947455e-01 
9.154630e-01 
9.366871e-01 
9.583897e-01 
9.805442e-01 
1.003126e+00 
1.026111e+00 
1.049477e+00 
1.199690e+00 
1.174160e+00 
1.148879e+00 
1.123858e+00 
1.099111e+00 
1.074653e+00 
1.050501e+00 
1.026672e+00 
1.003186e+00 
9.800634e-01 
9.573261e-01 
9.349973e-01 
9.131018e-01 
8.916661e-01 
8.707185e-01 
8.502890e-01 
8.304095e-01 
8.111137e-01 
7.924378e-01 
7.744199e-01 
7.571008e-01 
7.405224e-01 
7.247281e-01 
7.097620e-01 
6.956699e-01 
6.824995e-01 
6.702997e-01 
6.591203e-01 
6.490112e-01 
6.400211e-01 
6.321963e-01 
6.255793e-01 
6.202074e-01 
6.161103e-01 
6.133096e-01 
6.118308e-01 
6.123921e-01 
6.147910e-01 
6.186857e-01 
6.239293e-01 
6.304527e-01 
6.382085e-01 
6.471518e-01 
6.572357e-01 
6.684111e-01 
6.806280e-01 
6.938363e-01 
7.079862e-01 
7.230291e-01 
7.389176e-01 
7.556063e-01 
7.730510e-01 
7.912087e-01 
8.100383e-01 
8.295015e-01 
8.495620e-01 
8.701859e-01 
8.913408e-01 
9.129961e-01 
9.351231e-01 
9.576947e-01 
9.806854e-01 
1.004071e+00 
1.027830e+00 
1.180941e+00 
1.155072e+00 
1.129444e+00 
1.104067e+00 
1.078955e+00 
1.054123e+00 
1.029588e+00 
1.005367e+00 
9.814785e-01 
9.579443e-01 
9.347864e-01 
9.120282e-01 
8.896948e-01 
8.678132e-01 
8.464124e-01 
8.255230e-01 
8.051780e-01 
7.854121e-01 
7.662626e-01 
7.477694e-01 
7.299747e-01 
7.129234e-01 
6.966617e-01 
6.812371e-01 
6.666988e-01 
6.530982e-01 
6.404882e-01 
6.289229e-01 
6.184570e-01 
6.091441e-01 
6.010354e-01 
5.941780e-01 
5.886134e-01 
5.843740e-01 
5.814836e-01 
5.799710e-01 
5.806270e-01 
5.831553e-01 
5.872092e-01 
5.926518e-01 
5.994183e-01 
6.074604e-01 
6.167294e-01 
6.271735e-01 
6.387384e-01 
6.513689e-01 
6.650100e-01 
6.796076e-01 
6.951090e-01 
7.114636e-01 
7.286227e-01 
7.465396e-01 
7.651692e-01 
7.844685e-01 
8.043977e-01 
8.249195e-01 
8.459989e-01 
8.676025e-01 
8.896991e-01 
9.122595e-01 
9.352560e-01 
9.586627e-01 
9.824556e-01 
1.006612e+00 
1.162680e+00 
1.136472e+00 
1.110494e+00 
1.084758e+00 
1.059277e+00 
1.034067e+00 
1.009144e+00 
9.845243e-01 
9.602282e-01 
9.362757e-01 
9.126892e-01 
8.894928e-01 
8.667118e-01 
8.443736e-01 
8.225077e-01 
8.011453e-01 
7.803200e-01 
7.600679e-01 
7.404275e-01 
7.214400e-01 
7.031496e-01 
6.856033e-01 
6.688506e-01 
6.529424e-01 
6.379320e-01 
6.238747e-01 
6.108280e-01 
5.988508e-01 
5.880031e-01 
5.783439e-01 
5.699300e-01 
5.628141e-01 
5.570423e-01 
5.526502e-01 
5.496642e-01 
5.481172e-01 
5.488743e-01 
5.515345e-01 
5.557551e-01 
5.614099e-01 
5.684374e-01 
5.767872e-01 
5.864059e-01 
5.972358e-01 
6.092166e-01 
6.222874e-01 
6.363878e-01 
6.514589e-01 
6.674439e-01 
6.842884e-01 
7.019404e-01 
7.203505e-01 
7.394712e-01 
7.592579e-01 
7.796693e-01 
8.006670e-01 
8.222147e-01 
8.442786e-01 
8.668267e-01 
8.898293e-01 
9.132584e-01 
9.370879e-01 
9.612934e-01 
9.858522e-01 
1.144936e+00 
1.118386e+00 
1.092057e+00 
1.065959e+00 
1.040106e+00 
1.014513e+00 
9.891970e-01 
9.641745e-01 
9.394646e-01 
9.150874e-01 
8.910653e-01 
8.674224e-01 
8.441844e-01 
8.213791e-01 
7.990361e-01 
7.771874e-01 
7.558673e-01 
7.351129e-01 
7.149640e-01 
6.954633e-01 
6.766567e-01 
6.585935e-01 
6.413259e-01 
6.249090e-01 
6.094002e-01 
5.948592e-01 
5.813483e-01 
5.689317e-01 
5.576752e-01 
5.476441e-01 
5.389017e-01 
5.315071e-01 
5.255118e-01 
5.209555e-01 
5.178673e-01 
5.162850e-01 
5.171338e-01 
5.199245e-01 
5.243205e-01 
5.302029e-01 
5.375118e-01 
5.461936e-01 
5.561886e-01 
5.674326e-01 
5.798584e-01 
5.933987e-01 
6.079875e-01 
6.235606e-01 
6.400567e-01 
6.574173e-01 
6.755873e-01 
6.945142e-01 
7.141481e-01 
7.344426e-01 
7.553552e-01 
7.768460e-01 
7.988781e-01 
8.214167e-01 
8.444293e-01 
8.678859e-01 
8.917580e-01 
9.160195e-01 
9.406459e-01 
9.656144e-01 
1.127685e+00 
1.100793e+00 
1.074115e+00 
1.047657e+00 
1.021434e+00 
9.954603e-01 
9.697514e-01 
9.443249e-01 
9.191991e-01 
8.943941e-01 
8.699319e-01 
8.458364e-01 
8.221337e-01 
7.988517e-01 
7.760205e-01 
7.536727e-01 
7.318432e-01 
7.105702e-01 
6.898944e-01 
6.698602e-01 
6.505153e-01 
6.319110e-01 
6.141025e-01 
5.971487e-01 
5.811112e-01 
5.660549e-01 
5.520474e-01 
5.391590e-01 
5.274620e-01 
5.170287e-01 
5.079301e-01 
5.002329e-01 
4.939952e-01 
4.892616e-01 
4.860638e-01 
4.844464e-01 
4.854035e-01 
4.883331e-01 
4.929167e-01 
4.990448e-01 
5.066587e-01 
5.156997e-01 
5.261013e-01 
5.377909e-01 
5.506939e-01 
5.647357e-01 
5.798440e-01 
5.959490e-01 
6.129845e-01 
6.308880e-01 
6.496007e-01 
6.690671e-01 
6.892348e-01 
7.100561e-01 
7.314870e-01 
7.534865e-01 
7.760168e-01 
7.990425e-01 
8.225308e-01 
8.464512e-01 
8.707753e-01 
8.954769e-01 
9.205315e-01 
9.459164e-01 
1.110966e+00 
1.083737e+00 
1.056712e+00 
1.029896e+00 
1.003303e+00 
9.769471e-01 
9.508443e-01 
9.250114e-01 
8.994667e-01 
8.742300e-01 
8.493228e-01 
8.247688e-01 
8.005939e-01 
7.768263e-01 
7.534964e-01 
7.306372e-01 
7.082843e-01 
6.864765e-01 
6.652559e-01 
6.446681e-01 
6.247626e-01 
6.055930e-01 
5.872172e-01 
5.696977e-01 
5.531006e-01 
5.374961e-01 
5.229579e-01 
5.095629e-01 
4.973908e-01 
4.865224e-01 
4.770374e-01 
4.690111e-01 
4.625096e-01 
4.575829e-01 
4.542660e-01 
4.526121e-01 
4.536784e-01 
4.567523e-01 
4.615354e-01 
4.679284e-01 
4.758722e-01 
4.853017e-01 
4.961414e-01 
5.083094e-01 
5.217223e-01 
5.362977e-01 
5.519561e-01 
5.686218e-01 
5.862235e-01 
6.046944e-01 
6.239722e-01 
6.439980e-01 
6.647175e-01 
6.860812e-01 
7.080438e-01 
7.305632e-01 
7.536007e-01 
7.771206e-01 
8.010897e-01 
8.254775e-01 
8.502556e-01 
8.753978e-01 
9.008798e-01 
9.266792e-01 
1.094804e+00 
1.067242e+00 
1.039871e+00 
1.012699e+00 
9.857367e-01 
9.589997e-01 
9.325027e-01 
9.062625e-01 
8.802969e-01 
8.546254e-01 
8.292693e-01 
8.042517e-01 
7.795983e-01 
7.553372e-01 
7.314989e-01 
7.081167e-01 
6.852269e-01 
6.628687e-01 
6.410854e-01 
6.199237e-01 
5.994348e-01 
5.796747e-01 
5.607039e-01 
5.425882e-01 
5.253986e-01 
5.092107e-01 
4.941047e-01 
4.801651e-01 
4.674800e-01 
4.561395e-01 
4.462337e-01 
4.378482e-01 
4.310586e-01 
4.259218e-01 
4.224757e-01 
4.207848e-01 
4.219601e-01 
4.251856e-01 
4.301832e-01 
4.368644e-01 
4.451680e-01 
4.550203e-01 
4.663347e-01 
4.790188e-01 
4.929790e-01 
5.081241e-01 
5.243671e-01 
5.416259e-01 
5.598237e-01 
5.788894e-01 
5.987568e-01 
6.193642e-01 
6.406552e-01 
6.625789e-01 
6.850882e-01 
7.081405e-01 
7.316962e-01 
7.557192e-01 
7.801763e-01 
8.050368e-01 
8.302727e-01 
8.558579e-01 
8.817686e-01 
9.079826e-01 
1.079220e+00 
1.051329e+00 
1.023617e+00 
9.960901e-01 
9.687618e-01 
9.416452e-01 
9.147551e-01 
8.881077e-01 
8.617204e-01 
8.356125e-01 
8.098046e-01 
7.843196e-01 
7.591825e-01 
7.344210e-01 
7.100657e-01 
6.861500e-01 
6.627105e-01 
6.397870e-01 
6.174233e-01 
5.956676e-01 
5.745724e-01 
5.541958e-01 
5.346011e-01 
5.158576e-01 
4.980406e-01 
4.812314e-01 
4.655174e-01 
4.509914e-01 
4.377508e-01 
4.258968e-01 
4.155311e-01 
4.067520e-01 
3.996465e-01 
3.942799e-01 
3.906929e-01 
3.889646e-01 
3.902481e-01 
3.936338e-01 
3.988637e-01 
4.058602e-01 
4.145581e-01 
4.248722e-01 
4.367029e-01 
4.499450e-01 
4.644938e-01 
4.802483e-01 
4.971131e-01 
5.149993e-01 
5.338246e-01 
5.535134e-01 
5.739957e-01 
5.952072e-01 
6.170897e-01 
6.395904e-01 
6.626614e-01 
6.862590e-01 
7.103433e-01 
7.348779e-01 
7.598295e-01 
7.851678e-01 
8.108649e-01 
8.368952e-01 
8.632353e-01 
8.898637e-01 
1.064237e+00 
1.036022e+00 
1.007973e+00 
9.800964e-01 
9.524051e-01 
9.249118e-01 
8.976308e-01 
8.705777e-01 
8.437694e-01 
8.172246e-01 
7.909635e-01 
7.650084e-01 
7.393837e-01 
7.141165e-01 
6.892369e-01 
6.647784e-01 
6.407775e-01 
6.172746e-01 
5.943139e-01 
5.719444e-01 
5.502201e-01 
5.292009e-01 
5.089526e-01 
4.895480e-01 
4.710668e-01 
4.535961e-01 
4.372306e-01 
4.220722e-01 
4.082290e-01 
3.958143e-01 
3.849443e-01 
3.757318e-01 
3.682783e-01 
3.626591e-01 
3.589178e-01 
3.571517e-01 
3.585422e-01 
3.620980e-01 
3.675810e-01 
3.749246e-01 
3.840566e-01 
3.948772e-01 
4.072709e-01 
4.211180e-01 
4.363007e-01 
4.527074e-01 
4.702339e-01 
4.887839e-01 
5.082695e-01 
5.286104e-01 
5.497332e-01 
5.715712e-01 
5.940643e-01 
6.171585e-01 
6.408050e-01 
6.649593e-01 
6.895814e-01 
7.146347e-01 
7.400863e-01 
7.659060e-01 
7.920665e-01 
8.185427e-01 
8.453119e-01 
8.723530e-01 
1.049878e+00 
1.021345e+00 
9.929641e-01 
9.647429e-01 
9.366931e-01 
9.088272e-01 
8.811587e-01 
8.537026e-01 
8.264753e-01 
7.994946e-01 
7.727803e-01 
7.463539e-01 
7.202392e-01 
6.944625e-01 
6.690533e-01 