# vtk DataFile Version 2.0 
Quadtree Mesh 
ASCII 
DATASET UNSTRUCTURED_GRID 
POINTS 4096 double 
-1.000000e+00 -1.000000e+00 0.000000e+00
-9.682540e-01 -1.000000e+00 0.000000e+00
-9.365079e-01 -1.000000e+00 0.000000e+00
-9.047619e-01 -1.000000e+00 0.000000e+00
-8.730159e-01 -1.000000e+00 0.000000e+00
-8.412698e-01 -1.000000e+00 0.000000e+00
-8.095238e-01 -1.000000e+00 0.000000e+00
-7.777778e-01 -1.000000e+00 0.000000e+00
-7.460317e-01 -1.000000e+00 0.000000e+00
-7.142857e-01 -1.000000e+00 0.000000e+00
-6.825397e-01 -1.000000e+00 0.000000e+00
-6.507937e-01 -1.000000e+00 0.000000e+00
-6.190476e-01 -1.000000e+00 0.000000e+00
-5.873016e-01 -1.000000e+00 0.000000e+00
-5.555556e-01 -1.000000e+00 0.000000e+00
-5.238095e-01 -1.000000e+00 0.000000e+00
-4.920635e-01 -1.000000e+00 0.000000e+00
-4.603175e-01 -1.000000e+00 0.000000e+00
-4.285714e-01 -1.000000e+00 0.000000e+00
-3.968254e-01 -1.000000e+00 0.000000e+00
-3.650794e-01 -1.000000e+00 0.000000e+00
-3.333333e-01 -1.000000e+00 0.000000e+00
-3.015873e-01 -1.000000e+00 0.000000e+00
-2.698413e-01 -1.000000e+00 0.000000e+00
-2.380952e-01 -1.000000e+00 0.000000e+00
-2.063492e-01 -1.000000e+00 0.000000e+00
-1.746032e-01 -1.000000e+00 0.000000e+00
-1.428571e-01 -1.000000e+00 0.000000e+00
-1.111111e-01 -1.000000e+00 0.000000e+00
-7.936508e-02 -1.000000e+00 0.000000e+00
-4.761905e-02 -1.000000e+00 0.000000e+00
-1.587302e-02 -1.000000e+00 0.000000e+00
1.587302e-02 -1.000000e+00 0.000000e+00
4.761905e-02 -1.000000e+00 0.000000e+00
7.936508e-02 -1.000000e+00 0.000000e+00
1.111111e-01 -1.000000e+00 0.000000e+00
1.428571e-01 -1.000000e+00 0.000000e+00
1.746032e-01 -1.000000e+00 0.000000e+00
2.063492e-01 -1.000000e+00 0.000000e+00
2.380952e-01 -1.000000e+00 0.000000e+00
2.698413e-01 -1.000000e+00 0.000000e+00
3.015873e-01 -1.000000e+00 0.000000e+00
3.333333e-01 -1.000000e+00 0.000000e+00
3.650794e-01 -1.000000e+00 0.000000e+00
3.968254e-01 -1.000000e+00 0.000000e+00
4.285714e-01 -1.000000e+00 0.000000e+00
4.603175e-01 -1.000000e+00 0.000000e+00
4.920635e-01 -1.000000e+00 0.000000e+00
5.238095e-01 -1.000000e+00 0.000000e+00
5.555556e-01 -1.000000e+00 0.000000e+00
5.873016e-01 -1.000000e+00 0.000000e+00
6.190476e-01 -1.000000e+00 0.000000e+00
6.507937e-01 -1.000000e+00 0.000000e+00
6.825397e-01 -1.000000e+00 0.000000e+00
7.142857e-01 -1.000000e+00 0.000000e+00
7.460317e-01 -1.000000e+00 0.000000e+00
7.777778e-01 -1.000000e+00 0.000000e+00
8.095238e-01 -1.000000e+00 0.000000e+00
8.412698e-01 -1.000000e+00 0.000000e+00
8.730159e-01 -1.000000e+00 0.000000e+00
9.047619e-01 -1.000000e+00 0.000000e+00
9.365079e-01 -1.000000e+00 0.000000e+00
9.682540e-01 -1.000000e+00 0.000000e+00
1.000000e+00 -1.000000e+00 0.000000e+00
-1.000000e+00 -9.682540e-01 0.000000e+00
-9.682540e-01 -9.682540e-01 0.000000e+00
-9.365079e-01 -9.682540e-01 0.000000e+00
-9.047619e-01 -9.682540e-01 0.000000e+00
-8.730159e-01 -9.682540e-01 0.000000e+00
-8.412698e-01 -9.682540e-01 0.000000e+00
-8.095238e-01 -9.682540e-01 0.000000e+00
-7.777778e-01 -9.682540e-01 0.000000e+00
-7.460317e-01 -9.682540e-01 0.000000e+00
-7.142857e-01 -9.682540e-01 0.000000e+00
-6.825397e-01 -9.682540e-01 0.000000e+00
-6.507937e-01 -9.682540e-01 0.000000e+00
-6.190476e-01 -9.682540e-01 0.000000e+00
-5.873016e-01 -9.682540e-01 0.000000e+00
-5.555556e-01 -9.682540e-01 0.000000e+00
-5.238095e-01 -9.682540e-01 0.000000e+00
-4.920635e-01 -9.682540e-01 0.000000e+00
-4.603175e-01 -9.682540e-01 0.000000e+00
-4.285714e-01 -9.682540e-01 0.000000e+00
-3.968254e-01 -9.682540e-01 0.000000e+00
-3.650794e-01 -9.682540e-01 0.000000e+00
-3.333333e-01 -9.682540e-01 0.000000e+00
-3.015873e-01 -9.682540e-01 0.000000e+00
-2.698413e-01 -9.682540e-01 0.000000e+00
-2.380952e-01 -9.682540e-01 0.000000e+00
-2.063492e-01 -9.682540e-01 0.000000e+00
-1.746032e-01 -9.682540e-01 0.000000e+00
-1.428571e-01 -9.682540e-01 0.000000e+00
-1.111111e-01 -9.682540e-01 0.000000e+00
-7.936508e-02 -9.682540e-01 0.000000e+00
-4.761905e-02 -9.682540e-01 0.000000e+00
-1.587302e-02 -9.682540e-01 0.000000e+00
1.587302e-02 -9.682540e-01 0.000000e+00
4.761905e-02 -9.682540e-01 0.000000e+00
7.936508e-02 -9.682540e-01 0.000000e+00
1.111111e-01 -9.682540e-01 0.000000e+00
1.428571e-01 -9.682540e-01 0.000000e+00
1.746032e-01 -9.682540e-01 0.000000e+00
2.063492e-01 -9.682540e-01 0.000000e+00
2.380952e-01 -9.682540e-01 0.000000e+00
2.698413e-01 -9.682540e-01 0.000000e+00
3.015873e-01 -9.682540e-01 0.000000e+00
3.333333e-01 -9.682540e-01 0.000000e+00
3.650794e-01 -9.682540e-01 0.000000e+00
3.968254e-01 -9.682540e-01 0.000000e+00
4.285714e-01 -9.682540e-01 0.000000e+00
4.603175e-01 -9.682540e-01 0.000000e+00
4.920635e-01 -9.682540e-01 0.000000e+00
5.238095e-01 -9.682540e-01 0.000000e+00
5.555556e-01 -9.682540e-01 0.000000e+00
5.873016e-01 -9.682540e-01 0.000000e+00
6.190476e-01 -9.682540e-01 0.000000e+00
6.507937e-01 -9.682540e-01 0.000000e+00
6.825397e-01 -9.682540e-01 0.000000e+00
7.142857e-01 -9.682540e-01 0.000000e+00
7.460317e-01 -9.682540e-01 0.000000e+00
7.777778e-01 -9.682540e-01 0.000000e+00
8.095238e-01 -9.682540e-01 0.000000e+00
8.412698e-01 -9.682540e-01 0.000000e+00
8.730159e-01 -9.682540e-01 0.000000e+00
9.047619e-01 -9.682540e-01 0.000000e+00
9.365079e-01 -9.682540e-01 0.000000e+00
9.682540e-01 -9.682540e-01 0.000000e+00
1.000000e+00 -9.682540e-01 0.000000e+00
-1.000000e+00 -9.365079e-01 0.000000e+00
-9.682540e-01 -9.365079e-01 0.000000e+00
-9.365079e-01 -9.365079e-01 0.000000e+00
-9.047619e-01 -9.365079e-01 0.000000e+00
-8.730159e-01 -9.365079e-01 0.000000e+00
-8.412698e-01 -9.365079e-01 0.000000e+00
-8.095238e-01 -9.365079e-01 0.000000e+00
-7.777778e-01 -9.365079e-01 0.000000e+00
-7.460317e-01 -9.365079e-01 0.000000e+00
-7.142857e-01 -9.365079e-01 0.000000e+00
-6.825397e-01 -9.365079e-01 0.000000e+00
-6.507937e-01 -9.365079e-01 0.000000e+00
-6.190476e-01 -9.365079e-01 0.000000e+00
-5.873016e-01 -9.365079e-01 0.000000e+00
-5.555556e-01 -9.365079e-01 0.000000e+00
-5.238095e-01 -9.365079e-01 0.000000e+00
-4.920635e-01 -9.365079e-01 0.000000e+00
-4.603175e-01 -9.365079e-01 0.000000e+00
-4.285714e-01 -9.365079e-01 0.000000e+00
-3.968254e-01 -9.365079e-01 0.000000e+00
-3.650794e-01 -9.365079e-01 0.000000e+00
-3.333333e-01 -9.365079e-01 0.000000e+00
-3.015873e-01 -9.365079e-01 0.000000e+00
-2.698413e-01 -9.365079e-01 0.000000e+00
-2.380952e-01 -9.365079e-01 0.000000e+00
-2.063492e-01 -9.365079e-01 0.000000e+00
-1.746032e-01 -9.365079e-01 0.000000e+00
-1.428571e-01 -9.365079e-01 0.000000e+00
-1.111111e-01 -9.365079e-01 0.000000e+00
-7.936508e-02 -9.365079e-01 0.000000e+00
-4.761905e-02 -9.365079e-01 0.000000e+00
-1.587302e-02 -9.365079e-01 0.000000e+00
1.587302e-02 -9.365079e-01 0.000000e+00
4.761905e-02 -9.365079e-01 0.000000e+00
7.936508e-02 -9.365079e-01 0.000000e+00
1.111111e-01 -9.365079e-01 0.000000e+00
1.428571e-01 -9.365079e-01 0.000000e+00
1.746032e-01 -9.365079e-01 0.000000e+00
2.063492e-01 -9.365079e-01 0.000000e+00
2.380952e-01 -9.365079e-01 0.000000e+00
2.698413e-01 -9.365079e-01 0.000000e+00
3.015873e-01 -9.365079e-01 0.000000e+00
3.333333e-01 -9.365079e-01 0.000000e+00
3.650794e-01 -9.365079e-01 0.000000e+00
3.968254e-01 -9.365079e-01 0.000000e+00
4.285714e-01 -9.365079e-01 0.000000e+00
4.603175e-01 -9.365079e-01 0.000000e+00
4.920635e-01 -9.365079e-01 0.000000e+00
5.238095e-01 -9.365079e-01 0.000000e+00
5.555556e-01 -9.365079e-01 0.000000e+00
5.873016e-01 -9.365079e-01 0.000000e+00
6.190476e-01 -9.365079e-01 0.000000e+00
6.507937e-01 -9.365079e-01 0.000000e+00
6.825397e-01 -9.365079e-01 0.000000e+00
7.142857e-01 -9.365079e-01 0.000000e+00
7.460317e-01 -9.365079e-01 0.000000e+00
7.777778e-01 -9.365079e-01 0.000000e+00
8.095238e-01 -9.365079e-01 0.000000e+00
8.412698e-01 -9.365079e-01 0.000000e+00
8.730159e-01 -9.365079e-01 0.000000e+00
9.047619e-01 -9.365079e-01 0.000000e+00
9.365079e-01 -9.365079e-01 0.000000e+00
9.682540e-01 -9.365079e-01 0.000000e+00
1.000000e+00 -9.365079e-01 0.000000e+00
-1.000000e+00 -9.047619e-01 0.000000e+00
-9.682540e-01 -9.047619e-01 0.000000e+00
-9.365079e-01 -9.047619e-01 0.000000e+00
-9.047619e-01 -9.047619e-01 0.000000e+00
-8.730159e-01 -9.047619e-01 0.000000e+00
-8.412698e-01 -9.047619e-01 0.000000e+00
-8.095238e-01 -9.047619e-01 0.000000e+00
-7.777778e-01 -9.047619e-01 0.000000e+00
-7.460317e-01 -9.047619e-01 0.000000e+00
-7.142857e-01 -9.047619e-01 0.000000e+00
-6.825397e-01 -9.047619e-01 0.000000e+00
-6.507937e-01 -9.047619e-01 0.000000e+00
-6.190476e-01 -9.047619e-01 0.000000e+00
-5.873016e-01 -9.047619e-01 0.000000e+00
-5.555556e-01 -9.047619e-01 0.000000e+00
-5.238095e-01 -9.047619e-01 0.000000e+00
-4.920635e-01 -9.047619e-01 0.000000e+00
-4.603175e-01 -9.047619e-01 0.000000e+00
-4.285714e-01 -9.047619e-01 0.000000e+00
-3.968254e-01 -9.047619e-01 0.000000e+00
-3.650794e-01 -9.047619e-01 0.000000e+00
-3.333333e-01 -9.047619e-01 0.000000e+00
-3.015873e-01 -9.047619e-01 0.000000e+00
-2.698413e-01 -9.047619e-01 0.000000e+00
-2.380952e-01 -9.047619e-01 0.000000e+00
-2.063492e-01 -9.047619e-01 0.000000e+00
-1.746032e-01 -9.047619e-01 0.000000e+00
-1.428571e-01 -9.047619e-01 0.000000e+00
-1.111111e-01 -9.047619e-01 0.000000e+00
-7.936508e-02 -9.047619e-01 0.000000e+00
-4.761905e-02 -9.047619e-01 0.000000e+00
-1.587302e-02 -9.047619e-01 0.000000e+00
1.587302e-02 -9.047619e-01 0.000000e+00
4.761905e-02 -9.047619e-01 0.000000e+00
7.936508e-02 -9.047619e-01 0.000000e+00
1.111111e-01 -9.047619e-01 0.000000e+00
1.428571e-01 -9.047619e-01 0.000000e+00
1.746032e-01 -9.047619e-01 0.000000e+00
2.063492e-01 -9.047619e-01 0.000000e+00
2.380952e-01 -9.047619e-01 0.000000e+00
2.698413e-01 -9.047619e-01 0.000000e+00
3.015873e-01 -9.047619e-01 0.000000e+00
3.333333e-01 -9.047619e-01 0.000000e+00
3.650794e-01 -9.047619e-01 0.000000e+00
3.968254e-01 -9.047619e-01 0.000000e+00
4.285714e-01 -9.047619e-01 0.000000e+00
4.603175e-01 -9.047619e-01 0.000000e+00
4.920635e-01 -9.047619e-01 0.000000e+00
5.238095e-01 -9.047619e-01 0.000000e+00
5.555556e-01 -9.047619e-01 0.000000e+00
5.873016e-01 -9.047619e-01 0.000000e+00
6.190476e-01 -9.047619e-01 0.000000e+00
[...]
POINT_DATA 4096 
SCALARS concentration double 1 
LOOKUP_TABLE default 
1.023463e+00 
1.000333e+00 
9.775379e-01 
9.551400e-01 
9.331712e-01 
9.116564e-01 
8.906215e-01 
8.700951e-01 
8.501076e-01 
8.306913e-01 
8.118802e-01 
7.937107e-01 
7.762206e-01 
7.594503e-01 
7.434419e-01 
7.282395e-01 
7.138886e-01 
7.004346e-01 
6.879247e-01 
6.764063e-01 
6.659274e-01 
6.565360e-01 
6.482813e-01 
6.412108e-01 
6.353690e-01 
6.307968e-01 
6.275265e-01 
6.255553e-01 
6.258288e-01 
6.281549e-01 
6.320455e-01 
6.373433e-01 
6.439542e-01 
6.518081e-01 
6.608465e-01 
6.710149e-01 
6.822601e-01 
6.945303e-01 
7.077740e-01 
7.219415e-01 
7.369833e-01 
7.528499e-01 
7.694957e-01 
7.868777e-01 
8.049549e-01 
8.236882e-01 
8.430405e-01 
8.629767e-01 
8.834636e-01 
9.044698e-01 
9.259659e-01 
9.479239e-01 
9.703178e-01 
9.931231e-01 
1.016317e+00 
1.039877e+00 
1.063784e+00 
1.088018e+00 
1.112562e+00 
1.137399e+00 
1.162513e+00 
1.187889e+00 
1.213514e+00 
1.239375e+00 
1.001828e+00 
9.782910e-01 
9.550798e-01 
9.322570e-01 
9.098549e-01 
8.878991e-01 
8.664163e-01 
8.454358e-01 
8.249890e-01 
8.051091e-01 
7.858316e-01 
7.671943e-01 
7.492368e-01 
7.320014e-01 
7.155326e-01 
6.998773e-01 
6.850841e-01 
6.712021e-01 
6.582819e-01 
6.463754e-01 
6.355348e-01 
6.258125e-01 
6.172621e-01 
6.099361e-01 
6.038837e-01 
5.991501e-01 
5.957719e-01 
5.937515e-01 
5.941191e-01 
5.965800e-01 
6.006469e-01 
6.061627e-01 
6.130321e-01 
6.211822e-01 
6.305512e-01 
6.410808e-01 
6.527135e-01 
6.653930e-01 
6.790643e-01 
6.936736e-01 
7.091683e-01 
7.254954e-01 
7.426068e-01 
7.604570e-01 
7.790028e-01 
7.982033e-01 
8.180199e-01 
8.384160e-01 
8.593573e-01 
8.808115e-01 
9.027484e-01 
9.251396e-01 
9.479583e-01 
9.711798e-01 
9.947808e-01 
1.018739e+00 
1.043035e+00 
1.067649e+00 
1.092563e+00 
1.117761e+00 
1.143227e+00 
1.168947e+00 
1.194906e+00 
1.221092e+00 
9.806585e-01 
9.567052e-01 
9.330699e-01 
9.098133e-01 
8.869680e-01 
8.645601e-01 
8.426172e-01 
8.211690e-01 
8.002479e-01 
7.798882e-01 
7.601267e-01 
7.410025e-01 
7.225572e-01 
7.048351e-01 
6.878830e-01 
6.717506e-01 
6.564897e-01 
6.421538e-01 
6.287974e-01 
6.164768e-01 
6.052493e-01 
5.951723e-01 
5.863043e-01 
5.787031e-01 
5.724235e-01 
5.675158e-01 
5.640211e-01 
5.619479e-01 
5.624139e-01 
5.650158e-01 
5.692694e-01 
5.750175e-01 
5.821634e-01 
5.906310e-01 
6.003542e-01 
6.112697e-01 
6.233153e-01 
6.364301e-01 
6.505544e-01 
6.656304e-01 
6.816019e-01 
6.984127e-01 
7.160115e-01 
7.343503e-01 
7.533837e-01 
7.730690e-01 
7.933660e-01 
8.142368e-01 
8.356461e-01 
8.575606e-01 
8.799493e-01 
9.027834e-01 
9.260358e-01 
9.496813e-01 
9.736963e-01 
9.980590e-01 
1.022749e+00 
1.047747e+00 
1.073036e+00 
1.098598e+00 
1.124418e+00 
1.150483e+00 
1.176778e+00 
1.203290e+00 
9.599650e-01 
9.355902e-01 
9.115242e-01 
8.878262e-01 
8.645289e-01 
8.416588e-01 
8.192442e-01 
7.973154e-01 
7.759056e-01 
7.550502e-01 
7.347871e-01 
7.151570e-01 
6.962033e-01 
6.779724e-01 
6.605135e-01 
6.438791e-01 
6.281245e-01 
6.133076e-01 
5.994875e-01 
5.867249e-01 
5.750830e-01 
5.646250e-01 
5.554149e-01 
5.475168e-01 
5.409915e-01 
5.358953e-01 
5.322745e-01 
5.301447e-01 
5.307132e-01 
5.334632e-01 
5.379150e-01 
5.439118e-01 
5.513542e-01 
5.601623e-01 
5.702648e-01 
5.815928e-01 
5.940785e-01 
6.076557e-01 
6.222597e-01 
6.378283e-01 
6.543014e-01 
6.716192e-01 
6.897273e-01 
7.085751e-01 
7.281150e-01 
7.483024e-01 
7.690956e-01 
7.904553e-01 
8.123453e-01 
8.347314e-01 
8.575821e-01 
8.808680e-01 
9.045617e-01 
9.286378e-01 
9.530726e-01 
9.778442e-01 
1.002932e+00 
1.028318e+00 
1.053983e+00 
1.079911e+00 
1.106088e+00 
1.132498e+00 
1.159129e+00 
1.185968e+00 
9.397756e-01 
9.149743e-01 
8.904717e-01 
8.663252e-01 
8.425674e-01 
8.192254e-01 
7.963278e-01 
7.739057e-01 
7.519929e-01 
7.306257e-01 
7.098433e-01 
6.896877e-01 
6.702043e-01 
6.514414e-01 
6.334509e-01 
6.162882e-01 
6.000122e-01 
5.846851e-01 
5.703712e-01 
5.571366e-01 
5.450500e-01 
5.341819e-01 
5.246025e-01 
5.163830e-01 
5.095913e-01 
5.042904e-01 
5.005330e-01 
4.983422e-01 
4.990173e-01 
5.019231e-01 
5.065864e-01 
5.128501e-01 
5.206118e-01 
5.297863e-01 
5.402961e-01 
5.520658e-01 
5.650213e-01 
5.790904e-01 
5.942029e-01 
6.102916e-01 
6.272924e-01 
6.451417e-01 
6.637819e-01 
6.831597e-01 
7.032253e-01 
7.239322e-01 
7.452371e-01 
7.670998e-01 
7.894828e-01 
8.123514e-01 
8.356736e-01 
8.594194e-01 
8.835613e-01 
9.080738e-01 
9.329331e-01 
9.581174e-01 
9.836064e-01 
1.009381e+00 
1.035425e+00 
1.061720e+00 
1.088253e+00 
1.115009e+00 
1.141975e+00 
1.169139e+00 
9.201171e-01 
8.948849e-01 
8.699406e-01 
8.453393e-01 
8.211135e-01 
7.972906e-01 
7.738994e-01 
7.509718e-01 
7.285419e-01 
7.066471e-01 
6.853276e-01 
6.646268e-01 
6.445917e-01 
6.252730e-01 
6.067251e-01 
5.890064e-01 
5.721795e-01 
5.563109e-01 
5.414708e-01 
5.277311e-01 
5.151670e-01 
5.038563e-01 
4.938775e-01 
4.853091e-01 
4.782274e-01 
4.727037e-01 
4.687977e-01 
4.665412e-01 
4.673266e-01 
4.703968e-01 
4.752865e-01 
4.818380e-01 
4.899444e-01 
4.995142e-01 
5.104625e-01 
5.227063e-01 
5.361642e-01 
5.507571e-01 
5.664090e-01 
5.830474e-01 
6.006035e-01 
6.190099e-01 
6.382057e-01 
6.581350e-01 
6.787457e-01 
6.999895e-01 
7.218217e-01 
7.442009e-01 
7.670889e-01 
7.904503e-01 
8.142527e-01 
8.384658e-01 
8.630621e-01 
8.880160e-01 
9.133038e-01 
9.389038e-01 
9.647959e-01 
9.909615e-01 
1.017384e+00 
1.044046e+00 
1.070934e+00 
1.098035e+00 
1.125335e+00 
1.152823e+00 
9.010144e-01 
8.753482e-01 
8.499582e-01 
8.248973e-01 
8.001971e-01 
7.758853e-01 
7.519911e-01 
7.285465e-01 
7.055865e-01 
6.831488e-01 
6.612747e-01 
6.400091e-01 
6.194006e-01 
5.995017e-01 
5.803696e-01 
5.620658e-01 
5.446567e-01 
5.282135e-01 
5.128119e-01 
4.985311e-01 
4.854533e-01 
4.736643e-01 
4.632521e-01 
4.543039e-01 
4.469058e-01 
4.411384e-01 
4.370704e-01 
4.347428e-01 
4.356407e-01 
4.388848e-01 
4.440179e-01 
4.508808e-01 
4.593608e-01 
4.693585e-01 
4.807801e-01 
4.935336e-01 
5.075294e-01 
5.226809e-01 
5.389055e-01 
5.561248e-01 
5.742652e-01 
5.932553e-01 
6.130310e-01 
6.335335e-01 
6.547087e-01 
6.765066e-01 
6.988811e-01 
7.217899e-01 
7.451940e-01 
7.690577e-01 
7.933482e-01 
8.180352e-01 
8.430910e-01 
8.684902e-01 
8.942093e-01 
9.202269e-01 
9.465232e-01 
9.730799e-01 
9.998802e-01 
1.026909e+00 
1.054151e+00 
1.081594e+00 
1.109226e+00 
1.137034e+00 
8.824944e-01 
8.563923e-01 
8.305542e-01 
8.050304e-01 
7.798511e-01 
7.550440e-01 
7.306386e-01 
7.066671e-01 
6.831647e-01 
6.601698e-01 
6.377245e-01 
6.158748e-01 
5.946707e-01 
5.741669e-01 
5.544229e-01 
5.355035e-01 
5.174790e-01 
5.004254e-01 
4.844244e-01 
4.695628e-01 
4.559312e-01 
4.436241e-01 
4.327397e-01 
4.233765e-01 
4.156316e-01 
4.095968e-01 
4.053511e-01 
4.029468e-01 
4.039590e-01 
4.073877e-01 
4.127843e-01 
4.199861e-01 
4.288729e-01 
4.393354e-01 
4.512692e-01 
4.645719e-01 
4.791445e-01 
4.948921e-01 
5.117247e-01 
5.295579e-01 
5.483126e-01 
5.679137e-01 
5.882936e-01 
6.093911e-01 
6.311497e-01 
6.535180e-01 
6.764488e-01 
6.998990e-01 
7.238292e-01 
7.482032e-01 
7.729881e-01 
7.981538e-01 
8.236727e-01 
8.495195e-01 
8.756712e-01 
9.021067e-01 
9.288066e-01 
9.557530e-01 
9.829297e-01 
1.010322e+00 
1.037915e+00 
1.065697e+00 
1.093656e+00 
1.121781e+00 
8.645798e-01 
8.380458e-01 
8.117597e-01 
7.857712e-01 
7.601095e-01 
7.348024e-01 
7.098792e-01 
6.853722e-01 
6.613167e-01 
6.377515e-01 
6.147192e-01 
5.922668e-01 
5.704457e-01 
5.493123e-01 
5.289286e-01 
5.093624e-01 
4.906880e-01 
4.729864e-01 
4.563459e-01 
4.408610e-01 
4.266317e-01 
4.137627e-01 
4.023633e-01 
3.925452e-01 
3.844189e-01 
3.780897e-01 
3.736488e-01 
3.711601e-01 
3.722715e-01 
3.758936e-01 
3.815756e-01 
3.891476e-01 
3.984791e-01 
4.094484e-01 
4.219382e-01 
4.358344e-01 
4.510271e-01 
4.674120e-01 
4.848914e-01 
5.033742e-01 
5.227757e-01 
5.430165e-01 
5.640260e-01 
5.857404e-01 
6.081016e-01 
6.310566e-01 
6.545575e-01 
6.785604e-01 
7.030256e-01 
7.279169e-01 
7.532015e-01 
7.788494e-01 
8.048334e-01 
8.311286e-01 
8.577126e-01 
8.845645e-01 
9.116657e-01 
9.389987e-01 
9.665480e-01 
9.942989e-01 
1.022238e+00 
1.050354e+00 
1.078635e+00 
1.107070e+00 
8.473520e-01 
8.203825e-01 
7.936455e-01 
7.671891e-01 
7.410409e-01 
7.152279e-01 
6.897793e-01 
6.647270e-01 
6.401063e-01 
6.159563e-01 
5.923199e-01 
5.692445e-01 
5.467828e-01 
5.249926e-01 
5.039380e-01 
4.836899e-01 
4.643267e-01 
4.459345e-01 
4.286083e-01 
4.124510e-01 
3.975730e-01 
3.840907e-01 
3.721264e-01 
3.618068e-01 
3.532584e-01 
3.466027e-01 
3.419457e-01 
3.393667e-01 
3.405948e-01 
3.444312e-01 
3.504286e-01 
3.584097e-01 
3.682309e-01 
3.797554e-01 
3.928512e-01 
4.073900e-01 
4.232500e-01 
4.403165e-01 
4.584831e-01 
4.776519e-01 
4.977323e-01 
5.186413e-01 
5.403051e-01 
5.626576e-01 
5.856390e-01 
6.091954e-01 
6.332780e-01 
6.578427e-01 
6.828498e-01 
7.082632e-01 
7.340503e-01 
7.601817e-01 
7.866306e-01 
8.133728e-01 
8.403863e-01 
8.676511e-01 
8.951489e-01 
9.228633e-01 
9.507789e-01 
9.788821e-01 
1.007160e+00 
1.035602e+00 
1.064196e+00 
1.092933e+00 
8.308226e-01 
8.034203e-01 
7.762339e-01 
7.493096e-01 
7.226738e-01 
6.963525e-01 
6.703740e-01 
6.447701e-01 
6.195755e-01 
5.948293e-01 
5.705743e-01 
5.468583e-01 
5.237344e-01 
5.012618e-01 
4.795063e-01 
4.585417e-01 
4.384501e-01 
4.193233e-01 
4.012630e-01 
3.843810e-01 
3.687989e-01 
3.546467e-01 
3.420616e-01 
3.311874e-01 
3.221700e-01 
3.151505e-01 
3.102532e-01 
3.075760e-01 
3.089218e-01 
3.129912e-01 
3.193368e-01 
3.277708e-01 
3.381330e-01 
3.502682e-01 
3.640262e-01 
3.792628e-01 
3.958423e-01 
4.136387e-01 
4.325364e-01 
4.524305e-01 
4.732244e-01 
4.948315e-01 
5.171754e-01 
5.401879e-01 
5.638080e-01 
5.879809e-01 
6.126575e-01 
6.377939e-01 
6.633503e-01 
6.892913e-01 
7.155848e-01 
7.422020e-01 
7.691170e-01 
7.963062e-01 
8.237483e-01 
8.514242e-01 
8.793164e-01 
9.074091e-01 
9.356879e-01 
9.641396e-01 
9.927524e-01 
1.021515e+00 
1.050418e+00 
1.079452e+00 
8.150242e-01 
7.871937e-01 
7.595614e-01 
7.321716e-01 
7.050497e-01 
6.782203e-01 
6.517106e-01 
6.255515e-01 
5.997771e-01 
5.744258e-01 
5.495402e-01 
5.251679e-01 
5.013620e-01 
4.781824e-01 
4.556964e-01 
4.339802e-01 
4.131197e-01 
3.932119e-01 
3.743656e-01 
3.567018e-01 
3.403542e-01 
3.254679e-01 
3.121976e-01 
3.007073e-01 
2.911660e-01 
2.837388e-01 
2.785726e-01 
2.757882e-01 
2.772519e-01 
2.815772e-01 
2.883102e-01 
2.972488e-01 
3.082118e-01 
3.210211e-01 
3.355048e-01 
3.515001e-01 
3.688556e-01 
3.874332e-01 
4.071078e-01 
4.277668e-01 
4.493084e-01 
4.716426e-01 
4.946907e-01 
5.183829e-01 
5.426574e-01 
5.674590e-01 
5.927389e-01 
6.184533e-01 
6.445633e-01 
6.710340e-01 
6.978344e-01 
7.249365e-01 
7.523153e-01 
7.799482e-01 
8.078149e-01 
8.358972e-01 
8.641785e-01 
8.926438e-01 
9.212796e-01 
9.500735e-01 
9.790145e-01 
1.008092e+00 
1.037297e+00 
1.066621e+00 
7.999970e-01 
7.717456e-01 
7.436731e-01 
7.158227e-01 
6.882183e-01 
6.608833e-01 
6.338437e-01 
6.071286e-01 
5.807713e-01 
5.548090e-01 
5.292833e-01 
5.042412e-01 
4.797354e-01 
4.558257e-01 
4.325805e-01 
4.100777e-01 
3.884068e-01 
3.676697e-01 
3.479820e-01 
3.294744e-01 
3.122932e-01 
2.966000e-01 
2.825703e-01 
2.703920e-01 
2.602617e-01 
2.523745e-01 
2.469054e-01 
2.440038e-01 
2.455848e-01 
2.501934e-01 
2.573607e-01 
2.668657e-01 
2.784999e-01 
2.920566e-01 
3.073381e-01 
3.241597e-01 
3.423530e-01 
3.617665e-01 
3.822653e-01 
4.037297e-01 
4.260527e-01 
4.491417e-01 
4.729163e-01 
4.973058e-01 
5.222480e-01 
5.476880e-01 
5.735775e-01 
5.998736e-01 
6.265383e-01 
6.535381e-01 
6.808428e-01 
7.084260e-01 
7.362635e-01 
7.643342e-01 
7.926188e-01 
8.211000e-01 
8.497625e-01 
8.785923e-01 
9.075766e-01 
9.367042e-01 
9.659646e-01 
9.953483e-01 
1.024847e+00 
1.054452e+00 
7.857835e-01 
7.571207e-01 
7.286167e-01 
7.003132e-01 
6.722327e-01 
6.443973e-01 
6.168316e-01 
5.895631e-01 
5.626231e-01 
5.360471e-01 
5.098754e-01 
4.841531e-01 
4.589322e-01 
4.342718e-01 
4.102404e-01 
3.869173e-01 
3.643945e-01 
3.427783e-01 
3.221908e-01 
3.027722e-01 
2.846820e-01 
2.680997e-01 
2.532246e-01 
2.402734e-01 
2.294768e-01 
2.210665e-01 
2.152533e-01 
2.122232e-01 
2.139200e-01 
2.188459e-01 
2.265039e-01 
2.366495e-01 
2.490383e-01 
2.634276e-01 
2.795885e-01 
2.973115e-01 
3.164093e-01 
3.367165e-01 
3.580883e-01 
3.803980e-01 
4.035352e-01 
4.274051e-01 
4.519263e-01 
4.770279e-01 
5.026481e-01 
5.287329e-01 
5.552352e-01 
5.821134e-01 
6.093311e-01 
6.368561e-01 
6.646599e-01 
6.927173e-01 
7.210059e-01 
7.495056e-01 
7.781987e-01 
8.070691e-01 
8.361026e-01 
8.652863e-01 
8.946085e-01 
9.240589e-01 
9.536280e-01 
9.833070e-01 
1.013088e+00 
1.042964e+00 
7.724295e-01 
7.433662e-01 
7.144418e-01 
6.856954e-01 
6.571483e-01 
6.288209e-01 
6.007362e-01 
5.729200e-01 
5.454012e-01 
5.182130e-01 
4.913931e-01 
4.649845e-01 
4.390373e-01 
4.136092e-01 
3.887681e-01 
3.645935e-01 
3.411789e-01 
3.186338e-01 
2.970861e-01 
2.766847e-01 
2.576024e-01 
2.400382e-01 
2.242177e-01 
2.103927e-01 
1.988360e-01 
1.898266e-01 
1.836192e-01 
1.804479e-01 
1.822582e-01 
1.875431e-01 
1.957609e-01 
2.066370e-01 
2.198798e-01 
2.352009e-01 
2.523339e-01 
2.710410e-01 
2.911144e-01 
3.123749e-01 
3.346685e-01 
3.578626e-01 
3.818443e-01 
4.065182e-01 
4.318027e-01 
4.576275e-01 
4.839324e-01 
5.106648e-01 
5.377794e-01 
5.652367e-01 
5.930021e-01 
6.210452e-01 
6.493395e-01 
6.778616e-01 
7.065906e-01 
7.355081e-01 
7.645979e-01 
7.938452e-01 
8.232372e-01 
8.527620e-01 
8.824093e-01 
9.121696e-01 
9.420344e-01 
9.719960e-01 
1.002048e+00 
1.032182e+00 
7.599671e-01 
7.305146e-01 
7.011840e-01 
6.720091e-01 
6.430091e-01 
6.142027e-01 
5.856109e-01 
5.572573e-01 
5.291687e-01 
5.013750e-01 
4.739108e-01 
4.468159e-01 
4.201376e-01 
3.939313e-01 
3.682629e-01 
3.432110e-01 
3.188689e-01 
2.953478e-01 
2.727794e-01 
2.513202e-01 
2.311559e-01 
2.125053e-01 
1.956238e-01 
1.808043e-01 
1.683730e-01 
1.586711e-01 
1.520075e-01 
1.486803e-01 
1.505994e-01 
1.562949e-01 
1.651569e-01 
1.768742e-01 
1.910908e-01 
2.074598e-01 
2.256695e-01 
2.454507e-01 
2.665747e-01 
2.888488e-01 
3.121112e-01 
3.362255e-01 
3.610782e-01 
3.865742e-01 
4.126333e-01 
4.391872e-01 
4.661779e-01 
4.935554e-01 
5.212769e-01 
5.493055e-01 
5.776089e-01 
6.061592e-01 
6.349320e-01 
6.639058e-01 
6.930618e-01 
7.223834e-01 
7.518557e-01 
7.814658e-01 
8.112020e-01 
8.410538e-01 
8.710120e-01 
9.010682e-01 
9.312150e-01 
9.614455e-01 
9.917537e-01 
1.022134e+00 
7.483612e-01 
7.185531e-01 
6.888401e-01 
6.592592e-01 
6.298283e-01 
6.005642e-01 
5.714857e-01 
5.426139e-01 
5.139725e-01 
4.855887e-01 
4.574933e-01 
4.297222e-01 
4.023186e-01 
3.753341e-01 
3.488313e-01 
3.228857e-01 
2.975887e-01 
2.730505e-01 
2.494043e-01 
2.268120e-01 
2.054701e-01 
1.856171e-01 
1.675404e-01 
1.515811e-01 
1.381321e-01 
1.276190e-01 
1.204212e-01 
1.169206e-01 
1.189387e-01 
1.251084e-01 
1.347209e-01 
1.474191e-01 
1.627558e-01 
1.803084e-01 
1.997121e-01 
2.206640e-01 
2.429149e-01 
2.662609e-01 
2.905348e-01 
3.155992e-01 
3.413420e-01 
3.676708e-01 
3.945081e-01 
4.217893e-01 
4.494597e-01 
4.774728e-01 
5.057893e-01 
5.343751e-01 
5.632013e-01 
5.922424e-01 
6.214767e-01 
6.508849e-01 
6.804504e-01 
7.101584e-01 
7.399960e-01 
7.699516e-01 
8.000150e-01 
8.301773e-01 
8.604302e-01 
8.907667e-01 
9.211802e-01 
9.516648e-01 
9.822154e-01 
1.012827e+00 
7.377890e-01 
7.076312e-01 
6.775529e-01 
6.475859e-01 
6.177449e-01 
5.880440e-01 
5.584995e-01 
5.291295e-01 
4.999545e-01 
4.709978e-01 
4.422863e-01 
4.138516e-01 
3.857317e-01 
3.579733e-01 
3.306337e-01 
3.037835e-01 
2.775091e-01 
2.519167e-01 
2.271377e-01 
2.033352e-01 
1.807130e-01 
1.595268e-01 
1.400965e-01 
1.228174e-01 
1.081672e-01 
9.668875e-02 
8.885593e-02 
8.516125e-02 
8.727865e-02 
9.401127e-02 
1.045116e-01 
1.183724e-01 
1.350104e-01 
1.539045e-01 
1.746304e-01 
1.968514e-01 
2.203016e-01 
2.447699e-01 
2.700877e-01 
2.961209e-01 
3.227616e-01 
3.499218e-01 
3.775294e-01 
4.055244e-01 
4.338571e-01 
4.624855e-01 
4.913743e-01 
5.204933e-01 
5.498169e-01 
5.793228e-01 
6.089921e-01 
6.388080e-01 
6.687562e-01 
6.988239e-01 
7.290000e-01 
7.592748e-01 
7.896394e-01 
8.200863e-01 
8.506085e-01 
8.812000e-01 
9.118553e-01 
9.425695e-01 
9.733382e-01 
1.004157e+00 
7.282592e-01 
6.977822e-01 
6.673648e-01 
6.370369e-01 
6.068112e-01 
5.766995e-01 
5.467153e-01 
5.168735e-01 
4.871911e-01 
4.576871e-01 
4.283840e-01 
3.993084e-01 
3.704931e-01 
3.419784e-01 
3.138144e-01 
2.860639e-01 
2.588053e-01 
2.321369e-01 
2.061826e-01 
1.811011e-01 
1.570972e-01 
1.344378e-01 
1.134716e-01 
9.465307e-02 
7.856460e-02 
6.591934e-02 
5.731915e-02 
5.340769e-02 
5.561763e-02 
6.302505e-02 
7.459030e-02 
8.985360e-02 
1.080171e-01 
1.284359e-01 
1.506232e-01 
1.742139e-01 
1.989318e-01 
2.245656e-01 
2.509522e-01 
2.779649e-01 
3.055033e-01 
3.334870e-01 
3.618512e-01 
3.905425e-01 
4.195173e-01 
4.487389e-01 
4.781769e-01 
5.078055e-01 
5.376028e-01 
5.675501e-01 
5.976313e-01 
6.278325e-01 
6.581415e-01 
6.885479e-01 
7.190424e-01 
7.496168e-01 
7.802641e-01 
8.109777e-01 
8.417521e-01 
8.725824e-01 
9.034639e-01 
9.343928e-01 
9.653654e-01 
9.963785e-01 
7.197935e-01 
6.890252e-01 
6.582981e-01 
6.276404e-01 
5.970624e-01 
5.665734e-01 
5.361840e-01 
5.059059e-01 
4.757520e-01 
4.457374e-01 
4.158796e-01 
3.862000e-01 
3.567251e-01 
3.274881e-01 
2.985307e-01 
2.699052e-01 
2.416781e-01 
2.139346e-01 
1.867851e-01 
1.603752e-01 
1.349001e-01 
1.106258e-01 
8.791951e-02 
6.729210e-02 
4.944723e-02 
3.536165e-02 
2.581300e-02 
2.165926e-02 
2.395441e-02 
3.218384e-02 
4.505220e-02 
6.205082e-02 
8.201734e-02 
1.041637e-01 
1.279498e-01 
1.529964e-01 
1.790305e-01 
2.058514e-01 
2.333094e-01 
2.612905e-01 
2.897063e-01 
3.184869e-01 
3.475769e-01 
3.769313e-01 
4.065134e-01 
4.362932e-01 
4.662454e-01 
4.963491e-01 
5.265864e-01 
5.569423e-01 
5.874037e-01 
6.179595e-01 
6.486001e-01 
6.793170e-01 
7.101028e-01 
7.409512e-01 
7.718564e-01 
8.028134e-01 
8.338177e-01 
8.648654e-01 
8.959529e-01 
9.270771e-01 
9.582352e-01 
9.894247e-01 
7.124388e-01 
6.814108e-01 
6.504072e-01 
6.194544e-01 
5.885606e-01 
5.577327e-01 
5.269783e-01 
4.963058e-01 
4.657247e-01 
4.352456e-01 
4.048816e-01 
3.746484e-01 
3.445661e-01 
3.146596e-01 
2.849609e-01 
2.555102e-01 
2.263592e-01 
1.975747e-01 
1.692459e-01 
1.414942e-01 
1.144890e-01 
8.847406e-02 
6.381069e-02 
4.104664e-02 
2.100015e-02 
5.088403e-03 
-5.521355e-03 
-9.885676e-03 
-7.264695e-03 
1.535993e-03 
1.604249e-02 
3.526244e-02 
5.736675e-02 
8.144779e-02 
1.069495e-01 
1.335078e-01 
1.608737e-01 
1.888718e-01 
2.173746e-01 
2.462872e-01 
2.755370e-01 
3.050679e-01 
3.348356e-01 
3.648048e-01 
3.949469e-01 
4.252385e-01 
4.556602e-01 
4.861959e-01 
5.168319e-01 
5.475568e-01 
5.783608e-01 
6.092354e-01 
6.401733e-01 
6.711682e-01 
7.022145e-01 
7.333074e-01 
7.644426e-01 
7.956163e-01 
8.268251e-01 
8.580661e-01 
8.893366e-01 
9.206343e-01 
9.519570e-01 
9.833028e-01 
7.062448e-01 
6.749905e-01 
6.437458e-01 
6.125358e-01 
5.813664e-01 
5.502424e-01 
5.191686e-01 
4.881506e-01 
4.571943e-01 
4.263070e-01 
3.954971e-01 
3.647753e-01 
3.341549e-01 
3.036530e-01 
2.732908e-01 
2.430957e-01 
2.131027e-01 
1.833573e-01 
1.539209e-01 
1.248780e-01 
9.635142e-02 
6.852739e-02 
4.170752e-02 
1.643707e-02 
-5.712458e-03 
-2.326927e-02 
-3.501592e-02 
-4.104542e-02 
-3.718194e-02 
-2.657148e-02 
-1.073797e-02 
1.000585e-02 
3.460313e-02 
6.078519e-02 
8.805952e-02 
1.161248e-01 
1.447841e-01 
1.739023e-01 
2.033834e-01 
2.331568e-01 
2.631695e-01 
2.933807e-01 
3.237588e-01 
3.542784e-01 
3.849192e-01 
4.156648e-01 
4.465013e-01 
4.774175e-01 
5.084038e-01 
5.394522e-01 
5.705557e-01 
6.017085e-01 
6.329056e-01 
6.641424e-01 
6.954150e-01 
7.267202e-01 
7.580547e-01 
7.894161e-01 
8.208020e-01 
8.522101e-01 
8.836388e-01 
9.150863e-01 
9.465512e-01 
9.780321e-01 
7.012726e-01 
6.698233e-01 
6.383736e-01 
6.069457e-01 
5.755435e-01 
5.441694e-01 
5.128261e-01 
4.815167e-01 
4.502446e-01 
4.190138e-01 
3.878293e-01 
3.566971e-01 
3.256248e-01 
2.946221e-01 