# vtk DataFile Version 2.0 
Quadtree Mesh 
ASCII 
DATASET UNSTRUCTURED_GRID 
POINTS 4096 double 
-1.000000e+00 -1.000000e+00 0.000000e+00
-9.682540e-01 -1.000000e+00 0.000000e+00
-9.365079e-01 -1.000000e+00 0.000000e+00
-9.047619e-01 -1.000000e+00 0.000000e+00
-8.730159e-01 -1.000000e+00 0.000000e+00
-8.412698e-01 -1.000000e+00 0.000000e+00
-8.095238e-01 -1.000000e+00 0.000000e+00
-7.777778e-01 -1.000000e+00 0.000000e+00
-7.460317e-01 -1.000000e+00 0.000000e+00
-7.142857e-01 -1.000000e+00 0.000000e+00
-6.825397e-01 -1.000000e+00 0.000000e+00
-6.507937e-01 -1.000000e+00 0.000000e+00
-6.190476e-01 -1.000000e+00 0.000000e+00
-5.873016e-01 -1.000000e+00 0.000000e+00
-5.555556e-01 -1.000000e+00 0.000000e+00
-5.238095e-01 -1.000000e+00 0.000000e+00
-4.920635e-01 -1.000000e+00 0.000000e+00
-4.603175e-01 -1.000000e+00 0.000000e+00
-4.285714e-01 -1.000000e+00 0.000000e+00
-3.968254e-01 -1.000000e+00 0.000000e+00
-3.650794e-01 -1.000000e+00 0.000000e+00
-3.333333e-01 -1.000000e+00 0.000000e+00
-3.015873e-01 -1.000000e+00 0.000000e+00
-2.698413e-01 -1.000000e+00 0.000000e+00
-2.380952e-01 -1.000000e+00 0.000000e+00
-2.063492e-01 -1.000000e+00 0.000000e+00
-1.746032e-01 -1.000000e+00 0.000000e+00
-1.428571e-01 -1.000000e+00 0.000000e+00
-1.111111e-01 -1.000000e+00 0.000000e+00
-7.936508e-02 -1.000000e+00 0.000000e+00
-4.761905e-02 -1.000000e+00 0.000000e+00
-1.587302e-02 -1.000000e+00 0.000000e+00
1.587302e-02 -1.000000e+00 0.000000e+00
4.761905e-02 -1.000000e+00 0.000000e+00
7.936508e-02 -1.000000e+00 0.000000e+00
1.111111e-01 -1.000000e+00 0.000000e+00
1.428571e-01 -1.000000e+00 0.000000e+00
1.746032e-01 -1.000000e+00 0.000000e+00
2.063492e-01 -1.000000e+00 0.000000e+00
2.380952e-01 -1.000000e+00 0.000000e+00
2.698413e-01 -1.000000e+00 0.000000e+00
3.015873e-01 -1.000000e+00 0.000000e+00
3.333333e-01 -1.000000e+00 0.000000e+00
3.650794e-01 -1.000000e+00 0.000000e+00
3.968254e-01 -1.000000e+00 0.000000e+00
4.285714e-01 -1.000000e+00 0.000000e+00
4.603175e-01 -1.000000e+00 0.000000e+00
4.920635e-01 -1.000000e+00 0.000000e+00
5.238095e-01 -1.000000e+00 0.000000e+00
5.555556e-01 -1.000000e+00 0.000000e+00
5.873016e-01 -1.000000e+00 0.000000e+00
6.190476e-01 -1.000000e+00 0.000000e+00
6.507937e-01 -1.000000e+00 0.000000e+00
6.825397e-01 -1.000000e+00 0.000000e+00
7.142857e-01 -1.000000e+00 0.000000e+00
7.460317e-01 -1.000000e+00 0.000000e+00
7.777778e-01 -1.000000e+00 0.000000e+00
8.095238e-01 -1.000000e+00 0.000000e+00
8.412698e-01 -1.000000e+00 0.000000e+00
8.730159e-01 -1.000000e+00 0.000000e+00
9.047619e-01 -1.000000e+00 0.000000e+00
9.365079e-01 -1.000000e+00 0.000000e+00
9.682540e-01 -1.000000e+00 0.000000e+00
1.000000e+00 -1.000000e+00 0.000000e+00
-1.000000e+00 -9.682540e-01 0.000000e+00
-9.682540e-01 -9.682540e-01 0.000000e+00
-9.365079e-01 -9.682540e-01 0.000000e+00
-9.047619e-01 -9.682540e-01 0.000000e+00
-8.730159e-01 -9.682540e-01 0.000000e+00
-8.412698e-01 -9.682540e-01 0.000000e+00
-8.095238e-01 -9.682540e-01 0.000000e+00
-7.777778e-01 -9.682540e-01 0.000000e+00
-7.460317e-01 -9.682540e-01 0.000000e+00
-7.142857e-01 -9.682540e-01 0.000000e+00
-6.825397e-01 -9.682540e-01 0.000000e+00
-6.507937e-01 -9.682540e-01 0.000000e+00
-6.190476e-01 -9.682540e-01 0.000000e+00
-5.873016e-01 -9.682540e-01 0.000000e+00
-5.555556e-01 -9.682540e-01 0.000000e+00
-5.238095e-01 -9.682540e-01 0.000000e+00
-4.920635e-01 -9.682540e-01 0.000000e+00
-4.603175e-01 -9.682540e-01 0.000000e+00
-4.285714e-01 -9.682540e-01 0.000000e+00
-3.968254e-01 -9.682540e-01 0.000000e+00
-3.650794e-01 -9.682540e-01 0.000000e+00
-3.333333e-01 -9.682540e-01 0.000000e+00
-3.015873e-01 -9.682540e-01 0.000000e+00
-2.698413e-01 -9.682540e-01 0.000000e+00
-2.380952e-01 -9.682540e-01 0.000000e+00
-2.063492e-01 -9.682540e-01 0.000000e+00
-1.746032e-01 -9.682540e-01 0.000000e+00
-1.428571e-01 -9.682540e-01 0.000000e+00
-1.111111e-01 -9.682540e-01 0.000000e+00
-7.936508e-02 -9.682540e-01 0.000000e+00
-4.761905e-02 -9.682540e-01 0.000000e+00
-1.587302e-02 -9.682540e-01 0.000000e+00
1.587302e-02 -9.682540e-01 0.000000e+00
4.761905e-02 -9.682540e-01 0.000000e+00
7.936508e-02 -9.682540e-01 0.000000e+00
1.111111e-01 -9.682540e-01 0.000000e+00
1.428571e-01 -9.682540e-01 0.000000e+00
1.746032e-01 -9.682540e-01 0.000000e+00
2.063492e-01 -9.682540e-01 0.000000e+00
2.380952e-01 -9.682540e-01 0.000000e+00
2.698413e-01 -9.682540e-01 0.000000e+00
3.015873e-01 -9.682540e-01 0.000000e+00
3.333333e-01 -9.682540e-01 0.000000e+00
3.650794e-01 -9.682540e-01 0.000000e+00
3.968254e-01 -9.682540e-01 0.000000e+00
4.285714e-01 -9.682540e-01 0.000000e+00
4.603175e-01 -9.682540e-01 0.000000e+00
4.920635e-01 -9.682540e-01 0.000000e+00
5.238095e-01 -9.682540e-01 0.000000e+00
5.555556e-01 -9.682540e-01 0.000000e+00
5.873016e-01 -9.682540e-01 0.000000e+00
6.190476e-01 -9.682540e-01 0.000000e+00
6.507937e-01 -9.682540e-01 0.000000e+00
6.825397e-01 -9.682540e-01 0.000000e+00
7.142857e-01 -9.682540e-01 0.000000e+00
7.460317e-01 -9.682540e-01 0.000000e+00
7.777778e-01 -9.682540e-01 0.000000e+00
8.095238e-01 -9.682540e-01 0.000000e+00
8.412698e-01 -9.682540e-01 0.000000e+00
8.730159e-01 -9.682540e-01 0.000000e+00
9.047619e-01 -9.682540e-01 0.000000e+00
9.365079e-01 -9.682540e-01 0.000000e+00
9.682540e-01 -9.682540e-01 0.000000e+00
1.000000e+00 -9.682540e-01 0.000000e+00
-1.000000e+00 -9.365079e-01 0.000000e+00
-9.682540e-01 -9.365079e-01 0.000000e+00
-9.365079e-01 -9.365079e-01 0.000000e+00
-9.047619e-01 -9.365079e-01 0.000000e+00
-8.730159e-01 -9.365079e-01 0.000000e+00
-8.412698e-01 -9.365079e-01 0.000000e+00
-8.095238e-01 -9.365079e-01 0.000000e+00
-7.777778e-01 -9.365079e-01 0.000000e+00
-7.460317e-01 -9.365079e-01 0.000000e+00
-7.142857e-01 -9.365079e-01 0.000000e+00
-6.825397e-01 -9.365079e-01 0.000000e+00
-6.507937e-01 -9.365079e-01 0.000000e+00
-6.190476e-01 -9.365079e-01 0.000000e+00
-5.873016e-01 -9.365079e-01 0.000000e+00
-5.555556e-01 -9.365079e-01 0.000000e+00
-5.238095e-01 -9.365079e-01 0.000000e+00
-4.920635e-01 -9.365079e-01 0.000000e+00
-4.603175e-01 -9.365079e-01 0.000000e+00
-4.285714e-01 -9.365079e-01 0.000000e+00
-3.968254e-01 -9.365079e-01 0.000000e+00
-3.650794e-01 -9.365079e-01 0.000000e+00
-3.333333e-01 -9.365079e-01 0.000000e+00
-3.015873e-01 -9.365079e-01 0.000000e+00
-2.698413e-01 -9.365079e-01 0.000000e+00
-2.380952e-01 -9.365079e-01 0.000000e+00
-2.063492e-01 -9.365079e-01 0.000000e+00
-1.746032e-01 -9.365079e-01 0.000000e+00
-1.428571e-01 -9.365079e-01 0.000000e+00
-1.111111e-01 -9.365079e-01 0.000000e+00
-7.936508e-02 -9.365079e-01 0.000000e+00
-4.761905e-02 -9.365079e-01 0.000000e+00
-1.587302e-02 -9.365079e-01 0.000000e+00
1.587302e-02 -9.365079e-01 0.000000e+00
4.761905e-02 -9.365079e-01 0.000000e+00
7.936508e-02 -9.365079e-01 0.000000e+00
1.111111e-01 -9.365079e-01 0.000000e+00
1.428571e-01 -9.365079e-01 0.000000e+00
1.746032e-01 -9.365079e-01 0.000000e+00
2.063492e-01 -9.365079e-01 0.000000e+00
2.380952e-01 -9.365079e-01 0.000000e+00
2.698413e-01 -9.365079e-01 0.000000e+00
3.015873e-01 -9.365079e-01 0.000000e+00
3.333333e-01 -9.365079e-01 0.000000e+00
3.650794e-01 -9.365079e-01 0.000000e+00
3.968254e-01 -9.365079e-01 0.000000e+00
4.285714e-01 -9.365079e-01 0.000000e+00
4.603175e-01 -9.365079e-01 0.000000e+00
4.920635e-01 -9.365079e-01 0.000000e+00
5.238095e-01 -9.365079e-01 0.000000e+00
5.555556e-01 -9.365079e-01 0.000000e+00
5.873016e-01 -9.365079e-01 0.000000e+00
6.190476e-01 -9.365079e-01 0.000000e+00
6.507937e-01 -9.365079e-01 0.000000e+00
6.825397e-01 -9.365079e-01 0.000000e+00
7.142857e-01 -9.365079e-01 0.000000e+00
7.460317e-01 -9.365079e-01 0.000000e+00
7.777778e-01 -9.365079e-01 0.000000e+00
8.095238e-01 -9.365079e-01 0.000000e+00
8.412698e-01 -9.365079e-01 0.000000e+00
8.730159e-01 -9.365079e-01 0.000000e+00
9.047619e-01 -9.365079e-01 0.000000e+00
9.365079e-01 -9.365079e-01 0.000000e+00
9.682540e-01 -9.365079e-01 0.000000e+00
1.000000e+00 -9.365079e-01 0.000000e+00
-1.000000e+00 -9.047619e-01 0.000000e+00
-9.682540e-01 -9.047619e-01 0.000000e+00
-9.365079e-01 -9.047619e-01 0.000000e+00
-9.047619e-01 -9.047619e-01 0.000000e+00
-8.730159e-01 -9.047619e-01 0.000000e+00
-8.412698e-01 -9.047619e-01 0.000000e+00
-8.095238e-01 -9.047619e-01 0.000000e+00
-7.777778e-01 -9.047619e-01 0.000000e+00
-7.460317e-01 -9.047619e-01 0.000000e+00
-7.142857e-01 -9.047619e-01 0.000000e+00
-6.825397e-01 -9.047619e-01 0.000000e+00
-6.507937e-01 -9.047619e-01 0.000000e+00
-6.190476e-01 -9.047619e-01 0.000000e+00
-5.873016e-01 -9.047619e-01 0.000000e+00
-5.555556e-01 -9.047619e-01 0.000000e+00
-5.238095e-01 -9.047619e-01 0.000000e+00
-4.920635e-01 -9.047619e-01 0.000000e+00
-4.603175e-01 -9.047619e-01 0.000000e+00
-4.285714e-01 -9.047619e-01 0.000000e+00
-3.968254e-01 -9.047619e-01 0.000000e+00
-3.650794e-01 -9.047619e-01 0.000000e+00
-3.333333e-01 -9.047619e-01 0.000000e+00
-3.015873e-01 -9.047619e-01 0.000000e+00
-2.698413e-01 -9.047619e-01 0.000000e+00
-2.380952e-01 -9.047619e-01 0.000000e+00
-2.063492e-01 -9.047619e-01 0.000000e+00
-1.746032e-01 -9.047619e-01 0.000000e+00
-1.428571e-01 -9.047619e-01 0.000000e+00
-1.111111e-01 -9.047619e-01 0.000000e+00
-7.936508e-02 -9.047619e-01 0.000000e+00
-4.761905e-02 -9.047619e-01 0.000000e+00
-1.587302e-02 -9.047619e-01 0.000000e+00
1.587302e-02 -9.047619e-01 0.000000e+00
4.761905e-02 -9.047619e-01 0.000000e+00
7.936508e-02 -9.047619e-01 0.000000e+00
1.111111e-01 -9.047619e-01 0.000000e+00
1.428571e-01 -9.047619e-01 0.000000e+00
1.746032e-01 -9.047619e-01 0.000000e+00
2.063492e-01 -9.047619e-01 0.000000e+00
2.380952e-01 -9.047619e-01 0.000000e+00
2.698413e-01 -9.047619e-01 0.000000e+00
3.015873e-01 -9.047619e-01 0.000000e+00
3.333333e-01 -9.047619e-01 0.000000e+00
3.650794e-01 -9.047619e-01 0.000000e+00
3.968254e-01 -9.047619e-01 0.000000e+00
4.285714e-01 -9.047619e-01 0.000000e+00
4.603175e-01 -9.047619e-01 0.000000e+00
4.920635e-01 -9.047619e-01 0.000000e+00
5.238095e-01 -9.047619e-01 0.000000e+00
5.555556e-01 -9.047619e-01 0.000000e+00
5.873016e-01 -9.047619e-01 0.000000e+00
6.190476e-01 -9.047619e-01 0.000000e+00
[...]
POINT_DATA 4096 
SCALARS concentration double 1 
LOOKUP_TABLE default 
1.464623e+00 
1.443818e+00 
1.423346e+00 
1.403221e+00 
1.383457e+00 
1.364070e+00 
1.345072e+00 
1.326479e+00 
1.308307e+00 
1.290572e+00 
1.273290e+00 
1.256478e+00 
1.240154e+00 
1.224336e+00 
1.209041e+00 
1.194290e+00 
1.180102e+00 
1.166498e+00 
1.153499e+00 
1.141126e+00 
1.129398e+00 
1.118333e+00 
1.107948e+00 
1.098263e+00 
1.089294e+00 
1.081062e+00 
1.073584e+00 
1.066879e+00 
1.060964e+00 
1.055855e+00 
1.051566e+00 
1.048110e+00 
1.045501e+00 
1.043746e+00 
1.042849e+00 
1.043070e+00 
1.044535e+00 
1.047157e+00 
1.050822e+00 
1.055439e+00 
1.060948e+00 
1.067306e+00 
1.074483e+00 
1.082454e+00 
1.091197e+00 
1.100690e+00 
1.110912e+00 
1.121843e+00 
1.133461e+00 
1.145747e+00 
1.158680e+00 
1.172238e+00 
1.186403e+00 
1.201154e+00 
1.216471e+00 
1.232334e+00 
1.248723e+00 
1.265619e+00 
1.283003e+00 
1.300859e+00 
1.319170e+00 
1.337919e+00 
1.357090e+00 
1.376668e+00 
1.440673e+00 
1.419573e+00 
1.398804e+00 
1.378380e+00 
1.358315e+00 
1.338624e+00 
1.319322e+00 
1.300423e+00 
1.281945e+00 
1.263903e+00 
1.246316e+00 
1.229199e+00 
1.212572e+00 
1.196452e+00 
1.180860e+00 
1.165815e+00 
1.151337e+00 
1.137448e+00 
1.124170e+00 
1.111526e+00 
1.099537e+00 
1.088221e+00 
1.077597e+00 
1.067686e+00 
1.058505e+00 
1.050075e+00 
1.042417e+00 
1.035548e+00 
1.029489e+00 
1.024255e+00 
1.019862e+00 
1.016325e+00 
1.013657e+00 
1.011866e+00 
1.010957e+00 
1.011225e+00 
1.012784e+00 
1.015522e+00 
1.019316e+00 
1.024073e+00 
1.029733e+00 
1.036258e+00 
1.043617e+00 
1.051786e+00 
1.060742e+00 
1.070461e+00 
1.080922e+00 
1.092104e+00 
1.103983e+00 
1.116539e+00 
1.129750e+00 
1.143594e+00 
1.158051e+00 
1.173098e+00 
1.188716e+00 
1.204883e+00 
1.221577e+00 
1.238780e+00 
1.256474e+00 
1.274640e+00 
1.293260e+00 
1.312319e+00 
1.331799e+00 
1.351685e+00 
1.416986e+00 
1.395586e+00 
1.374515e+00 
1.353787e+00 
1.333414e+00 
1.313413e+00 
1.293799e+00 
1.274588e+00 
1.255796e+00 
1.237440e+00 
1.219538e+00 
1.202108e+00 
1.185169e+00 
1.168740e+00 
1.152840e+00 
1.137491e+00 
1.122714e+00 
1.108530e+00 
1.094964e+00 
1.082037e+00 
1.069775e+00 
1.058197e+00 
1.047324e+00 
1.037176e+00 
1.027773e+00 
1.019137e+00 
1.011289e+00 
1.004249e+00 
9.980379e-01 
9.926731e-01 
9.881718e-01 
9.845493e-01 
9.818191e-01 
9.799913e-01 
9.790688e-01 
9.793891e-01 
9.810460e-01 
9.839029e-01 
9.878267e-01 
9.927260e-01 
9.985435e-01 
1.005241e+00 
1.012790e+00 
1.021164e+00 
1.030340e+00 
1.040294e+00 
1.051003e+00 
1.062444e+00 
1.074594e+00 
1.087429e+00 
1.100927e+00 
1.115066e+00 
1.129822e+00 
1.145174e+00 
1.161101e+00 
1.177578e+00 
1.194586e+00 
1.212103e+00 
1.230112e+00 
1.248593e+00 
1.267529e+00 
1.286902e+00 
1.306694e+00 
1.326891e+00 
1.393573e+00 
1.371868e+00 
1.350490e+00 
1.329451e+00 
1.308765e+00 
1.288448e+00 
1.268516e+00 
1.248984e+00 
1.229870e+00 
1.211192e+00 
1.192968e+00 
1.175216e+00 
1.157955e+00 
1.141206e+00 
1.124989e+00 
1.109326e+00 
1.094239e+00 
1.079750e+00 
1.065884e+00 
1.052665e+00 
1.040119e+00 
1.028267e+00 
1.017133e+00 
1.006738e+00 
9.971029e-01 
9.882506e-01 
9.802036e-01 
9.729841e-01 
9.666133e-01 
9.611109e-01 
9.564953e-01 
9.527828e-01 
9.499881e-01 
9.481215e-01 
9.471858e-01 
9.475636e-01 
9.493231e-01 
9.523010e-01 
9.563577e-01 
9.614034e-01 
9.673832e-01 
9.742606e-01 
9.820066e-01 
9.905951e-01 
1.000001e+00 
1.010200e+00 
1.021168e+00 
1.032879e+00 
1.045310e+00 
1.058435e+00 
1.072231e+00 
1.086675e+00 
1.101742e+00 
1.117409e+00 
1.133654e+00 
1.150452e+00 
1.167782e+00 
1.185623e+00 
1.203955e+00 
1.222759e+00 
1.242017e+00 
1.261711e+00 
1.281823e+00 
1.302337e+00 
1.370446e+00 
1.348431e+00 
1.326741e+00 
1.305386e+00 
1.284381e+00 
1.263741e+00 
1.243483e+00 
1.223624e+00 
1.204181e+00 
1.185172e+00 
1.166616e+00 
1.148533e+00 
1.130941e+00 
1.113862e+00 
1.097318e+00 
1.081330e+00 
1.065922e+00 
1.051117e+00 
1.036940e+00 
1.023417e+00 
1.010575e+00 
9.984385e-01 
9.870316e-01 
9.763772e-01 
9.664985e-01 
9.574192e-01 
9.491634e-01 
9.417548e-01 
9.352162e-01 
9.295691e-01 
9.248332e-01 
9.210262e-01 
9.181637e-01 
9.162567e-01 
9.153078e-01 
9.157489e-01 
9.176151e-01 
9.207163e-01 
9.249088e-01 
9.301055e-01 
9.362543e-01 
9.433195e-01 
9.512719e-01 
9.600846e-01 
9.697315e-01 
9.801864e-01 
9.914234e-01 
1.003416e+00 
1.016139e+00 
1.029567e+00 
1.043672e+00 
1.058432e+00 
1.073820e+00 
1.089813e+00 
1.106387e+00 
1.123516e+00 
1.141178e+00 
1.159351e+00 
1.178016e+00 
1.197153e+00 
1.216741e+00 
1.236763e+00 
1.257201e+00 
1.278038e+00 
1.347620e+00 
1.325291e+00 
1.303283e+00 
1.281607e+00 
1.260276e+00 
1.239307e+00 
1.218717e+00 
1.198522e+00 
1.178742e+00 
1.159393e+00 
1.140497e+00 
1.122072e+00 
1.104139e+00 
1.086720e+00 
1.069837e+00 
1.053513e+00 
1.037772e+00 
1.022640e+00 
1.008140e+00 
9.943018e-01 
9.811515e-01 
9.687172e-01 
9.570248e-01 
9.460988e-01 
9.359644e-01 
9.266467e-01 
9.181713e-01 
9.105637e-01 
9.038484e-01 
8.980487e-01 
8.931861e-01 
8.892796e-01 
8.863461e-01 
8.843970e-01 
8.834350e-01 
8.839455e-01 
8.859222e-01 
8.891489e-01 
8.934806e-01 
8.988339e-01 
9.051589e-01 
9.124208e-01 
9.205896e-01 
9.296373e-01 
9.395363e-01 
9.502589e-01 
9.617775e-01 
9.740644e-01 
9.870921e-01 
1.000833e+00 
1.015261e+00 
1.030348e+00 
1.046070e+00 
1.062400e+00 
1.079313e+00 
1.096783e+00 
1.114787e+00 
1.133304e+00 
1.152310e+00 
1.171787e+00 
1.191714e+00 
1.212072e+00 
1.232843e+00 
1.254010e+00 
1.325116e+00 
1.302466e+00 
1.280135e+00 
1.258131e+00 
1.236468e+00 
1.215163e+00 
1.194233e+00 
1.173695e+00 
1.153568e+00 
1.133871e+00 
1.114625e+00 
1.095848e+00 
1.077564e+00 
1.059793e+00 
1.042560e+00 
1.025889e+00 
1.009803e+00 
9.943300e-01 
9.794959e-01 
9.653289e-01 
9.518578e-01 
9.391122e-01 
9.271207e-01 
9.159099e-01 
9.055069e-01 
8.959385e-01 
8.872321e-01 
8.794148e-01 
8.725132e-01 
8.665525e-01 
8.615562e-01 
8.575449e-01 
8.545366e-01 
8.525438e-01 
8.515690e-01 
8.521541e-01 
8.542443e-01 
8.575984e-01 
8.620734e-01 
8.675897e-01 
8.740995e-01 
8.815678e-01 
8.899640e-01 
8.992586e-01 
9.094222e-01 
9.204254e-01 
9.322388e-01 
9.448330e-01 
9.581787e-01 
9.722469e-01 
9.870093e-01 
1.002438e+00 
1.018505e+00 
1.035184e+00 
1.052448e+00 
1.070270e+00 
1.088628e+00 
1.107496e+00 
1.126854e+00 
1.146680e+00 
1.166954e+00 
1.187657e+00 
1.208769e+00 
1.230272e+00 
1.302947e+00 
1.279972e+00 
1.257311e+00 
1.234973e+00 
1.212972e+00 
1.191323e+00 
1.170045e+00 
1.149156e+00 
1.128674e+00 
1.108620e+00 
1.089013e+00 
1.069875e+00 
1.051228e+00 
1.033095e+00 
1.015500e+00 
9.984685e-01 
9.820258e-01 
9.661992e-01 
9.510169e-01 
9.365078e-01 
9.227023e-01 
9.096314e-01 
8.973264e-01 
8.858167e-01 
8.751312e-01 
8.652988e-01 
8.563488e-01 
8.483102e-01 
8.412117e-01 
8.350809e-01 
8.299431e-01 
8.258210e-01 
8.227341e-01 
8.206957e-01 
8.197086e-01 
8.203749e-01 
8.225813e-01 
8.260655e-01 
8.306889e-01 
8.363758e-01 
8.430798e-01 
8.507657e-01 
8.594014e-01 
8.689557e-01 
8.793975e-01 
8.906952e-01 
9.028176e-01 
9.157333e-01 
9.294112e-01 
9.438208e-01 
9.589317e-01 
9.747145e-01 
9.911404e-01 
1.008181e+00 
1.025808e+00 
1.043995e+00 
1.062716e+00 
1.081948e+00 
1.101668e+00 
1.121853e+00 
1.142483e+00 
1.163538e+00 
1.184999e+00 
1.206847e+00 
1.281113e+00 
1.257807e+00 
1.234812e+00 
1.212134e+00 
1.189789e+00 
1.167792e+00 
1.146161e+00 
1.124913e+00 
1.104070e+00 
1.083650e+00 
1.063674e+00 
1.044165e+00 
1.025146e+00 
1.006640e+00 
9.886722e-01 
9.712685e-01 
9.544562e-01 
9.382633e-01 
9.227193e-01 
9.078546e-01 
8.937008e-01 
8.802907e-01 
8.676579e-01 
8.558349e-01 
8.448528e-01 
8.347426e-01 
8.255358e-01 
8.172636e-01 
8.099569e-01 
8.036459e-01 
7.983582e-01 
7.941186e-01 
7.909485e-01 
7.888622e-01 
7.878629e-01 
7.886092e-01 
7.909297e-01 
7.945460e-01 
7.993234e-01 
8.051890e-01 
8.120976e-01 
8.200128e-01 
8.289011e-01 
8.387292e-01 
8.494638e-01 
8.610712e-01 
8.735180e-01 
8.867708e-01 
9.007964e-01 
9.155624e-01 
9.310370e-01 
9.471888e-01 
9.639878e-01 
9.814041e-01 
9.994077e-01 
1.017971e+00 
1.037068e+00 
1.056675e+00 
1.076767e+00 
1.097322e+00 
1.118318e+00 
1.139735e+00 
1.161554e+00 
1.183755e+00 
1.259625e+00 
1.235986e+00 
1.212652e+00 
1.189631e+00 
1.166937e+00 
1.144585e+00 
1.122594e+00 
1.100982e+00 
1.079768e+00 
1.058974e+00 
1.038621e+00 
1.018731e+00 
9.993283e-01 
9.804374e-01 
9.620840e-01 
9.442952e-01 
9.270993e-01 
9.105257e-01 
8.946050e-01 
8.793692e-01 
8.648514e-01 
8.510862e-01 
8.381092e-01 
8.259561e-01 
8.146606e-01 
8.042566e-01 
7.947777e-01 
7.862576e-01 
7.787299e-01 
7.722273e-01 
7.667802e-01 
7.624159e-01 
7.591577e-01 
7.570214e-01 
7.560106e-01 
7.568516e-01 
7.592929e-01 
7.630474e-01 
7.679865e-01 
7.740407e-01 
7.811652e-01 
7.893227e-01 
7.984775e-01 
8.085940e-01 
8.196363e-01 
8.315687e-01 
8.443551e-01 
8.579599e-01 
8.723481e-01 
8.874851e-01 
9.033372e-01 
9.198715e-01 
9.370562e-01 
9.548599e-01 
9.732516e-01 
9.922026e-01 
1.011686e+00 
1.031677e+00 
1.052150e+00 
1.073083e+00 
1.094453e+00 
1.116239e+00 
1.138422e+00 
1.160982e+00 
1.238510e+00 
1.214534e+00 
1.190857e+00 
1.167487e+00 
1.144438e+00 
1.121726e+00 
1.099368e+00 
1.077383e+00 
1.055792e+00 
1.034615e+00 
1.013874e+00 
9.935931e-01 
9.737960e-01 
9.545084e-01 
9.357570e-01 
9.175698e-01 
8.999762e-01 
8.830070e-01 
8.666943e-01 
8.510716e-01 
8.361737e-01 
8.220370e-01 
8.086991e-01 
7.961986e-01 
7.845728e-01 
7.738580e-01 
7.640909e-01 
7.553080e-01 
7.475455e-01 
7.408393e-01 
7.352226e-01 
7.307257e-01 
7.273740e-01 
7.251851e-01 
7.241630e-01 
7.251055e-01 
7.276689e-01 
7.315665e-01 
7.366751e-01 
7.429284e-01 
7.502813e-01 
7.586950e-01 
7.681314e-01 
7.785521e-01 
7.899186e-01 
8.021923e-01 
8.153348e-01 
8.293081e-01 
8.440747e-01 
8.595981e-01 
8.758425e-01 
8.927734e-01 
9.103572e-01 
9.285609e-01 
9.473523e-01 
9.667020e-01 
9.865822e-01 
1.006966e+00 
1.027830e+00 
1.049148e+00 
1.070899e+00 
1.093060e+00 
1.115612e+00 
1.138535e+00 
1.217783e+00 
1.193467e+00 
1.169443e+00 
1.145719e+00 
1.122310e+00 
1.099231e+00 
1.076500e+00 
1.054136e+00 
1.032159e+00 
1.010590e+00 
9.894529e-01 
9.687703e-01 
9.485677e-01 
9.288714e-01 
9.097090e-01 
8.911097e-01 
8.731040e-01 
8.557239e-01 
8.390031e-01 
8.229768e-01 
8.076815e-01 
7.931557e-01 
7.794392e-01 
7.665731e-01 
7.545985e-01 
7.435550e-01 
7.334823e-01 
7.244201e-01 
7.164079e-01 
7.094847e-01 
7.036873e-01 
6.990489e-01 
6.955978e-01 
6.933535e-01 
6.923211e-01 
6.933704e-01 
6.960581e-01 
7.001048e-01 
7.053923e-01 
7.118566e-01 
7.194520e-01 
7.281375e-01 
7.378721e-01 
7.486145e-01 
7.603231e-01 
7.729563e-01 
7.864730e-01 
8.008324e-01 
8.159947e-01 
8.319212e-01 
8.485740e-01 
8.659167e-01 
8.839141e-01 
9.025313e-01 
9.217352e-01 
9.414955e-01 
9.617832e-01 
9.825712e-01 
1.003833e+00 
1.025545e+00 
1.047684e+00 
1.070227e+00 
1.093155e+00 
1.116446e+00 
1.197463e+00 
1.172803e+00 
1.148429e+00 
1.124346e+00 
1.100571e+00 
1.077120e+00 
1.054010e+00 
1.031260e+00 
1.008889e+00 
9.869208e-01 
9.653770e-01 
9.442826e-01 
9.236632e-01 
9.035460e-01 
8.839596e-01 
8.649340e-01 
8.465010e-01 
8.286942e-01 
8.115486e-01 
7.951011e-01 
7.793902e-01 
7.644566e-01 
7.503424e-01 
7.370913e-01 
7.247482e-01 
7.133565e-01 
7.029593e-01 
6.936000e-01 
6.853216e-01 
6.781668e-01 
6.721762e-01 
6.673866e-01 
6.638296e-01 
6.615268e-01 
6.604849e-01 
6.616450e-01 
6.644608e-01 
6.686639e-01 
6.741411e-01 
6.808298e-01 
6.886832e-01 
6.976576e-01 
7.077088e-01 
7.187919e-01 
7.308620e-01 
7.438742e-01 
7.577843e-01 
7.725488e-01 
7.881252e-01 
8.044724e-01 
8.215504e-01 
8.393210e-01 
8.577470e-01 
8.767918e-01 
8.964215e-01 
9.166045e-01 
9.373110e-01 
9.585130e-01 
9.801837e-01 
1.002298e+00 
1.024832e+00 
1.047764e+00 
1.071073e+00 
1.094738e+00 
1.177566e+00 
1.152561e+00 
1.127832e+00 
1.103388e+00 
1.079243e+00 
1.055413e+00 
1.031918e+00 
1.008774e+00 
9.860034e-01 
9.636264e-01 
9.416672e-01 
9.201507e-01 
8.991033e-01 
8.785529e-01 
8.585290e-01 
8.390628e-01 
8.201872e-01 
8.019371e-01 
7.843492e-01 
7.674621e-01 
7.513165e-01 
7.359552e-01 
7.214229e-01 
7.077663e-01 
6.950335e-01 
6.832725e-01 
6.725304e-01 
6.628543e-01 
6.542915e-01 
6.468889e-01 
6.406913e-01 
6.357398e-01 
6.320696e-01 
6.297051e-01 
6.286546e-01 
6.299284e-01 
6.328774e-01 
6.372460e-01 
6.429252e-01 
6.498533e-01 
6.579819e-01 
6.672640e-01 
6.776517e-01 
6.890962e-01 
7.015487e-01 
7.149609e-01 
7.292850e-01 
7.444746e-01 
7.604845e-01 
7.772709e-01 
7.947918e-01 
8.130067e-01 
8.318766e-01 
8.513635e-01 
8.714324e-01 
8.920505e-01 
9.131872e-01 
9.348134e-01 
9.569018e-01 
9.794267e-01 
1.002364e+00 
1.025691e+00 
1.049386e+00 
1.073430e+00 
1.158113e+00 
1.132761e+00 
1.107675e+00 
1.082865e+00 
1.058345e+00 
1.034133e+00 
1.010246e+00 
9.867027e-01 
9.635236e-01 
9.407303e-01 
9.183465e-01 
8.963976e-01 
8.749109e-01 
8.539148e-01 
8.334399e-01 
8.135182e-01 
7.941840e-01 
7.754734e-01 
7.574249e-01 
7.400790e-01 
7.234784e-01 
7.076684e-01 
6.926965e-01 
6.786123e-01 
6.654673e-01 
6.533142e-01 
6.422046e-01 
6.321902e-01 
6.233229e-01 
6.156546e-01 
6.092348e-01 
6.041093e-01 
6.003178e-01 
5.978878e-01 
5.968302e-01 
5.982205e-01 
6.013093e-01 
6.058539e-01 
6.117491e-01 
6.189337e-01 
6.273566e-01 
6.369671e-01 
6.477129e-01 
6.595412e-01 
6.723988e-01 
6.862333e-01 
7.009934e-01 
7.166294e-01 
7.330931e-01 
7.503380e-01 
7.683199e-01 
7.869961e-01 
8.063258e-01 
8.262695e-01 
8.467910e-01 
8.678566e-01 
8.894346e-01 
9.114951e-01 
9.340102e-01 
9.569537e-01 
9.803011e-01 
1.004029e+00 
1.028117e+00 
1.052544e+00 
1.139142e+00 
1.113440e+00 
1.087994e+00 
1.062814e+00 
1.037915e+00 
1.013314e+00 
9.890283e-01 
9.650777e-01 
9.414822e-01 
9.182636e-01 
8.954454e-01 
8.730535e-01 
8.511155e-01 
8.296609e-01 
8.087206e-01 
7.883280e-01 
7.685183e-01 
7.493293e-01 
7.308010e-01 
7.129758e-01 
6.958989e-01 
6.796180e-01 
6.641833e-01 
6.496477e-01 
6.360664e-01 
6.234965e-01 
6.119950e-01 
6.016187e-01 
5.924252e-01 
5.844713e-01 
5.778124e-01 
5.724996e-01 
5.685776e-01 
5.660778e-01 
5.650141e-01 
5.665206e-01 
5.697559e-01 
5.744883e-01 
5.806157e-01 
5.880757e-01 
5.968141e-01 
6.067758e-01 
6.179040e-01 
6.301406e-01 
6.434281e-01 
6.577095e-01 
6.729296e-01 
6.890350e-01 
7.059744e-01 
7.236987e-01 
7.421610e-01 
7.613166e-01 
7.811227e-01 
8.015386e-01 
8.225268e-01 
8.440526e-01 
8.660832e-01 
8.885883e-01 
9.115392e-01 
9.349092e-01 
9.586736e-01 
9.828092e-01 
1.007294e+00 
1.032109e+00 
1.120679e+00 
1.094623e+00 
1.068812e+00 
1.043257e+00 
1.017974e+00 
9.929787e-01 
9.682891e-01 
9.439242e-01 
9.199046e-01 
8.962522e-01 
8.729906e-01 
8.501456e-01 
8.277452e-01 
8.058193e-01 
7.844001e-01 
7.635214e-01 
7.432200e-01 
7.235347e-01 
7.045072e-01 
6.861822e-01 
6.686069e-01 
6.518316e-01 
6.359097e-01 
6.208974e-01 
6.068539e-01 
5.938409e-01 
5.819213e-01 
5.711580e-01 
5.616142e-01 
5.533529e-01 
5.464358e-01 
5.409204e-01 
5.368572e-01 
5.342823e-01 
5.332123e-01 
5.348266e-01 
5.382143e-01 
5.431475e-01 
5.495245e-01 
5.572808e-01 
5.663584e-01 
5.766972e-01 
5.882346e-01 
6.009073e-01 
6.146524e-01 
6.294082e-01 
6.451152e-01 
6.617160e-01 
6.791559e-01 
6.973830e-01 
7.163478e-01 
7.360035e-01 
7.563050e-01 
7.772105e-01 
7.986815e-01 
8.206822e-01 
8.431790e-01 
8.661409e-01 
8.895386e-01 
9.133452e-01 
9.375356e-01 
9.620864e-01 
9.869759e-01 
1.012184e+00 
1.102684e+00 
1.076271e+00 
1.050098e+00 
1.024171e+00 
9.985041e-01 
9.731144e-01 
9.480194e-01 
9.232381e-01 
8.987910e-01 
8.747001e-01 
8.509890e-01 
8.276835e-01 
8.048117e-01 
7.824041e-01 
7.604934e-01 
7.391146e-01 
7.183052e-01 
6.981055e-01 
6.785590e-01 
6.597121e-01 
6.416145e-01 
6.243193e-01 
6.078832e-01 
5.923662e-01 
5.778316e-01 
5.643461e-01 
5.519787e-01 
5.407990e-01 
5.308770e-01 
5.222830e-01 
5.150858e-01 
5.093505e-01 
5.051349e-01 
5.024806e-01 
5.014081e-01 
5.031436e-01 
5.066984e-01 
5.118507e-01 
5.184993e-01 
5.265769e-01 
5.360206e-01 
5.467644e-01 
5.587400e-01 
5.718778e-01 
5.861092e-01 
6.013674e-01 
6.175879e-01 
6.347094e-01 
6.526737e-01 
6.714256e-01 
6.909133e-01 
7.110875e-01 
7.319014e-01 
7.533123e-01 
7.752805e-01 
7.977693e-01 
8.207443e-01 
8.441739e-01 
8.680284e-01 
8.922807e-01 
9.169053e-01 
9.418789e-01 
9.671798e-01 
9.927879e-01 
1.085206e+00 
1.058443e+00 
1.031908e+00 
1.005608e+00 
9.795561e-01 
9.537700e-01 
9.282667e-01 
9.030651e-01 
8.781855e-01 
8.536500e-01 
8.294823e-01 
8.057080e-01 
7.823551e-01 
7.594545e-01 
7.370394e-01 
7.151456e-01 
6.938117e-01 
6.730793e-01 
6.529933e-01 
6.336020e-01 
6.149577e-01 
5.971164e-01 
5.801381e-01 
5.640868e-01 
5.490305e-01 
5.350412e-01 
5.221941e-01 
5.105664e-01 
5.002359e-01 
4.912810e-01 
4.837793e-01 
4.778046e-01 
4.734230e-01 
4.706828e-01 
4.696090e-01 
4.714684e-01 
4.752009e-01 
4.805895e-01 
4.875320e-01 
4.959567e-01 
5.057948e-01 
5.169737e-01 
5.294180e-01 
5.430515e-01 
5.577991e-01 
5.735882e-01 
5.903493e-01 
6.080166e-01 
6.265281e-01 
6.458257e-01 
6.658548e-01 
6.865637e-01 
7.079044e-01 
7.298330e-01 
7.523088e-01 
7.752942e-01 
7.987542e-01 
8.226567e-01 
8.469717e-01 
8.716719e-01 
8.967318e-01 
9.221280e-01 
9.478390e-01 
9.738449e-01 
1.068272e+00 
1.041160e+00 
1.014264e+00 
9.875909e-01 
9.611547e-01 
9.349713e-01 
9.090579e-01 
8.834332e-01 
8.581174e-01 
8.331323e-01 
8.085015e-01 
7.842507e-01 
7.604079e-01 
7.370037e-01 
7.140719e-01 
6.916488e-01 
6.697741e-01 
6.484903e-01 
6.278440e-01 
6.078854e-01 
5.886691e-01 
5.702541e-01 
5.527039e-01 
5.360868e-01 
5.204757e-01 
5.059482e-01 
4.925865e-01 
4.804758e-01 
4.697028e-01 
4.603555e-01 
4.525217e-01 
4.462853e-01 
4.417224e-01 
4.388894e-01 
4.378163e-01 
4.398021e-01 
4.437248e-01 
4.493694e-01 
4.566311e-01 
4.654325e-01 
4.756977e-01 
4.873460e-01 
5.002940e-01 
5.144580e-01 
5.297556e-01 
5.461080e-01 
5.634401e-01 
5.816814e-01 
6.007661e-01 
6.206326e-01 
6.412239e-01 
6.624860e-01 
6.843698e-01 
7.068302e-01 
7.298257e-01 
7.533178e-01 
7.772713e-01 
8.016535e-01 
8.264345e-01 
8.515865e-01 
8.770844e-01 
9.029049e-01 
9.290267e-01 
9.554301e-01 
1.051903e+00 
1.024445e+00 
9.971904e-01 
9.701462e-01 
9.433262e-01 
9.167458e-01 
8.904218e-01 
8.643725e-01 
8.386177e-01 
8.131790e-01 
7.880800e-01 
7.633461e-01 
7.390051e-01 
7.150877e-01 
6.916274e-01 
6.686614e-01 
6.462297e-01 
6.243763e-01 
6.031489e-01 
5.825996e-01 
5.627853e-01 
5.437679e-01 
5.256144e-01 
5.083977e-01 
4.921959e-01 
4.770929e-01 
4.631780e-01 
4.505455e-01 
4.392921e-01 
4.295168e-01 
4.213192e-01 
4.147956e-01 
4.100339e-01 
4.071003e-01 
4.060299e-01 
4.081449e-01 
4.122717e-01 
4.181939e-01 
4.258029e-01 
4.350143e-01 
4.457430e-01 
4.578993e-01 
4.713902e-01 
4.861231e-01 
5.020080e-01 
5.189588e-01 
5.368945e-01 
5.557399e-01 
5.754247e-01 
5.958846e-01 
6.170594e-01 
6.388936e-01 
6.613368e-01 
6.843430e-01 
7.078699e-01 
7.318786e-01 
7.563334e-01 
7.812016e-01 
8.064532e-01 
8.320606e-01 
8.579987e-01 
8.842447e-01 
9.107773e-01 
9.375775e-01 
1.036121e+00 
1.008322e+00 
9.807127e-01 
9.533005e-01 
9.260990e-01 
8.991230e-01 
8.723890e-01 
8.459147e-01 
8.197195e-01 
7.938247e-01 
7.682533e-01 
7.430306e-01 
7.181844e-01 
6.937448e-01 
6.697455e-01 
6.462235e-01 
6.232197e-01 
6.007787e-01 
5.789495e-01 
5.577859e-01 
5.373469e-01 
5.176972e-01 
4.989077e-01 
4.810555e-01 
4.642245e-01 
4.485052e-01 
4.339949e-01 
4.207974e-01 
4.090209e-01 
3.987774e-01 
3.901799e-01 
3.833395e-01 
3.783587e-01 
3.753156e-01 
3.742499e-01 
3.764971e-01 
3.808432e-01 
3.870672e-01 
3.950549e-01 
4.047134e-01 
4.159470e-01 
4.286543e-01 
4.427315e-01 
4.580759e-01 
4.745884e-01 
4.921755e-01 
5.107499e-01 
5.302308e-01 
5.505443e-01 
5.716223e-01 
5.934024e-01 
6.158276e-01 
6.388462e-01 
6.624116e-01 
6.864808e-01 
7.110148e-01 
7.359777e-01 
7.613369e-01 
7.870625e-01 
8.131274e-01 
8.395067e-01 
8.661778e-01 
8.931203e-01 
9.203153e-01 
1.020955e+00 
9.928196e-01 
9.648597e-01 
9.370833e-01 
9.095034e-01 
8.821344e-01 
8.549921e-01 
8.280936e-01 
8.014578e-01 
7.751053e-01 
7.490588e-01 
7.233431e-01 
6.979856e-01 
6.730162e-01 
6.484682e-01 