# vtk DataFile Version 2.0 
Quadtree Mesh 
ASCII 
DATASET UNSTRUCTURED_GRID 
POINTS 4096 double 
-1.000000e+00 -1.000000e+00 0.000000e+00
-9.682540e-01 -1.000000e+00 0.000000e+00
-9.365079e-01 -1.000000e+00 0.000000e+00
-9.047619e-01 -1.000000e+00 0.000000e+00
-8.730159e-01 -1.000000e+00 0.000000e+00
-8.412698e-01 -1.000000e+00 0.000000e+00
-8.095238e-01 -1.000000e+00 0.000000e+00
-7.777778e-01 -1.000000e+00 0.000000e+00
-7.460317e-01 -1.000000e+00 0.000000e+00
-7.142857e-01 -1.000000e+00 0.000000e+00
-6.825397e-01 -1.000000e+00 0.000000e+00
-6.507937e-01 -1.000000e+00 0.000000e+00
-6.190476e-01 -1.000000e+00 0.000000e+00
-5.873016e-01 -1.000000e+00 0.000000e+00
-5.555556e-01 -1.000000e+00 0.000000e+00
-5.238095e-01 -1.000000e+00 0.000000e+00
-4.920635e-01 -1.000000e+00 0.000000e+00
-4.603175e-01 -1.000000e+00 0.000000e+00
-4.285714e-01 -1.000000e+00 0.000000e+00
-3.968254e-01 -1.000000e+00 0.000000e+00
-3.650794e-01 -1.000000e+00 0.000000e+00
-3.333333e-01 -1.000000e+00 0.000000e+00
-3.015873e-01 -1.000000e+00 0.000000e+00
-2.698413e-01 -1.000000e+00 0.000000e+00
-2.380952e-01 -1.000000e+00 0.000000e+00
-2.063492e-01 -1.000000e+00 0.000000e+00
-1.746032e-01 -1.000000e+00 0.000000e+00
-1.428571e-01 -1.000000e+00 0.000000e+00
-1.111111e-01 -1.000000e+00 0.000000e+00
-7.936508e-02 -1.000000e+00 0.000000e+00
-4.761905e-02 -1.000000e+00 0.000000e+00
-1.587302e-02 -1.000000e+00 0.000000e+00
1.587302e-02 -1.000000e+00 0.000000e+00
4.761905e-02 -1.000000e+00 0.000000e+00
7.936508e-02 -1.000000e+00 0.000000e+00
1.111111e-01 -1.000000e+00 0.000000e+00
1.428571e-01 -1.000000e+00 0.000000e+00
1.746032e-01 -1.000000e+00 0.000000e+00
2.063492e-01 -1.000000e+00 0.000000e+00
2.380952e-01 -1.000000e+00 0.000000e+00
2.698413e-01 -1.000000e+00 0.000000e+00
3.015873e-01 -1.000000e+00 0.000000e+00
3.333333e-01 -1.000000e+00 0.000000e+00
3.650794e-01 -1.000000e+00 0.000000e+00
3.968254e-01 -1.000000e+00 0.000000e+00
4.285714e-01 -1.000000e+00 0.000000e+00
4.603175e-01 -1.000000e+00 0.000000e+00
4.920635e-01 -1.000000e+00 0.000000e+00
5.238095e-01 -1.000000e+00 0.000000e+00
5.555556e-01 -1.000000e+00 0.000000e+00
5.873016e-01 -1.000000e+00 0.000000e+00
6.190476e-01 -1.000000e+00 0.000000e+00
6.507937e-01 -1.000000e+00 0.000000e+00
6.825397e-01 -1.000000e+00 0.000000e+00
7.142857e-01 -1.000000e+00 0.000000e+00
7.460317e-01 -1.000000e+00 0.000000e+00
7.777778e-01 -1.000000e+00 0.000000e+00
8.095238e-01 -1.000000e+00 0.000000e+00
8.412698e-01 -1.000000e+00 0.000000e+00
8.730159e-01 -1.000000e+00 0.000000e+00
9.047619e-01 -1.000000e+00 0.000000e+00
9.365079e-01 -1.000000e+00 0.000000e+00
9.682540e-01 -1.000000e+00 0.000000e+00
1.000000e+00 -1.000000e+00 0.000000e+00
-1.000000e+00 -9.682540e-01 0.000000e+00
-9.682540e-01 -9.682540e-01 0.000000e+00
-9.365079e-01 -9.682540e-01 0.000000e+00
-9.047619e-01 -9.682540e-01 0.000000e+00
-8.730159e-01 -9.682540e-01 0.000000e+00
-8.412698e-01 -9.682540e-01 0.000000e+00
-8.095238e-01 -9.682540e-01 0.000000e+00
-7.777778e-01 -9.682540e-01 0.000000e+00
-7.460317e-01 -9.682540e-01 0.000000e+00
-7.142857e-01 -9.682540e-01 0.000000e+00
-6.825397e-01 -9.682540e-01 0.000000e+00
-6.507937e-01 -9.682540e-01 0.000000e+00
-6.190476e-01 -9.682540e-01 0.000000e+00
-5.873016e-01 -9.682540e-01 0.000000e+00
-5.555556e-01 -9.682540e-01 0.000000e+00
-5.238095e-01 -9.682540e-01 0.000000e+00
-4.920635e-01 -9.682540e-01 0.000000e+00
-4.603175e-01 -9.682540e-01 0.000000e+00
-4.285714e-01 -9.682540e-01 0.000000e+00
-3.968254e-01 -9.682540e-01 0.000000e+00
-3.650794e-01 -9.682540e-01 0.000000e+00
-3.333333e-01 -9.682540e-01 0.000000e+00
-3.015873e-01 -9.682540e-01 0.000000e+00
-2.698413e-01 -9.682540e-01 0.000000e+00
-2.380952e-01 -9.682540e-01 0.000000e+00
-2.063492e-01 -9.682540e-01 0.000000e+00
-1.746032e-01 -9.682540e-01 0.000000e+00
-1.428571e-01 -9.682540e-01 0.000000e+00
-1.111111e-01 -9.682540e-01 0.000000e+00
-7.936508e-02 -9.682540e-01 0.000000e+00
-4.761905e-02 -9.682540e-01 0.000000e+00
-1.587302e-02 -9.682540e-01 0.000000e+00
1.587302e-02 -9.682540e-01 0.000000e+00
4.761905e-02 -9.682540e-01 0.000000e+00
7.936508e-02 -9.682540e-01 0.000000e+00
1.111111e-01 -9.682540e-01 0.000000e+00
1.428571e-01 -9.682540e-01 0.000000e+00
1.746032e-01 -9.682540e-01 0.000000e+00
2.063492e-01 -9.682540e-01 0.000000e+00
2.380952e-01 -9.682540e-01 0.000000e+00
2.698413e-01 -9.682540e-01 0.000000e+00
3.015873e-01 -9.682540e-01 0.000000e+00
3.333333e-01 -9.682540e-01 0.000000e+00
3.650794e-01 -9.682540e-01 0.000000e+00
3.968254e-01 -9.682540e-01 0.000000e+00
4.285714e-01 -9.682540e-01 0.000000e+00
4.603175e-01 -9.682540e-01 0.000000e+00
4.920635e-01 -9.682540e-01 0.000000e+00
5.238095e-01 -9.682540e-01 0.000000e+00
5.555556e-01 -9.682540e-01 0.000000e+00
5.873016e-01 -9.682540e-01 0.000000e+00
6.190476e-01 -9.682540e-01 0.000000e+00
6.507937e-01 -9.682540e-01 0.000000e+00
6.825397e-01 -9.682540e-01 0.000000e+00
7.142857e-01 -9.682540e-01 0.000000e+00
7.460317e-01 -9.682540e-01 0.000000e+00
7.777778e-01 -9.682540e-01 0.000000e+00
8.095238e-01 -9.682540e-01 0.000000e+00
8.412698e-01 -9.682540e-01 0.000000e+00
8.730159e-01 -9.682540e-01 0.000000e+00
9.047619e-01 -9.682540e-01 0.000000e+00
9.365079e-01 -9.682540e-01 0.000000e+00
9.682540e-01 -9.682540e-01 0.000000e+00
1.000000e+00 -9.682540e-01 0.000000e+00
-1.000000e+00 -9.365079e-01 0.000000e+00
-9.682540e-01 -9.365079e-01 0.000000e+00
-9.365079e-01 -9.365079e-01 0.000000e+00
-9.047619e-01 -9.365079e-01 0.000000e+00
-8.730159e-01 -9.365079e-01 0.000000e+00
-8.412698e-01 -9.365079e-01 0.000000e+00
-8.095238e-01 -9.365079e-01 0.000000e+00
-7.777778e-01 -9.365079e-01 0.000000e+00
-7.460317e-01 -9.365079e-01 0.000000e+00
-7.142857e-01 -9.365079e-01 0.000000e+00
-6.825397e-01 -9.365079e-01 0.000000e+00
-6.507937e-01 -9.365079e-01 0.000000e+00
-6.190476e-01 -9.365079e-01 0.000000e+00
-5.873016e-01 -9.365079e-01 0.000000e+00
-5.555556e-01 -9.365079e-01 0.000000e+00
-5.238095e-01 -9.365079e-01 0.000000e+00
-4.920635e-01 -9.365079e-01 0.000000e+00
-4.603175e-01 -9.365079e-01 0.000000e+00
-4.285714e-01 -9.365079e-01 0.000000e+00
-3.968254e-01 -9.365079e-01 0.000000e+00
-3.650794e-01 -9.365079e-01 0.000000e+00
-3.333333e-01 -9.365079e-01 0.000000e+00
-3.015873e-01 -9.365079e-01 0.000000e+00
-2.698413e-01 -9.365079e-01 0.000000e+00
-2.380952e-01 -9.365079e-01 0.000000e+00
-2.063492e-01 -9.365079e-01 0.000000e+00
-1.746032e-01 -9.365079e-01 0.000000e+00
-1.428571e-01 -9.365079e-01 0.000000e+00
-1.111111e-01 -9.365079e-01 0.000000e+00
-7.936508e-02 -9.365079e-01 0.000000e+00
-4.761905e-02 -9.365079e-01 0.000000e+00
-1.587302e-02 -9.365079e-01 0.000000e+00
1.587302e-02 -9.365079e-01 0.000000e+00
4.761905e-02 -9.365079e-01 0.000000e+00
7.936508e-02 -9.365079e-01 0.000000e+00
1.111111e-01 -9.365079e-01 0.000000e+00
1.428571e-01 -9.365079e-01 0.000000e+00
1.746032e-01 -9.365079e-01 0.000000e+00
2.063492e-01 -9.365079e-01 0.000000e+00
2.380952e-01 -9.365079e-01 0.000000e+00
2.698413e-01 -9.365079e-01 0.000000e+00
3.015873e-01 -9.365079e-01 0.000000e+00
3.333333e-01 -9.365079e-01 0.000000e+00
3.650794e-01 -9.365079e-01 0.000000e+00
3.968254e-01 -9.365079e-01 0.000000e+00
4.285714e-01 -9.365079e-01 0.000000e+00
4.603175e-01 -9.365079e-01 0.000000e+00
4.920635e-01 -9.365079e-01 0.000000e+00
5.238095e-01 -9.365079e-01 0.000000e+00
5.555556e-01 -9.365079e-01 0.000000e+00
5.873016e-01 -9.365079e-01 0.000000e+00
6.190476e-01 -9.365079e-01 0.000000e+00
6.507937e-01 -9.365079e-01 0.000000e+00
6.825397e-01 -9.365079e-01 0.000000e+00
7.142857e-01 -9.365079e-01 0.000000e+00
7.460317e-01 -9.365079e-01 0.000000e+00
7.777778e-01 -9.365079e-01 0.000000e+00
8.095238e-01 -9.365079e-01 0.000000e+00
8.412698e-01 -9.365079e-01 0.000000e+00
8.730159e-01 -9.365079e-01 0.000000e+00
9.047619e-01 -9.365079e-01 0.000000e+00
9.365079e-01 -9.365079e-01 0.000000e+00
9.682540e-01 -9.365079e-01 0.000000e+00
1.000000e+00 -9.365079e-01 0.000000e+00
-1.000000e+00 -9.047619e-01 0.000000e+00
-9.682540e-01 -9.047619e-01 0.000000e+00
-9.365079e-01 -9.047619e-01 0.000000e+00
-9.047619e-01 -9.047619e-01 0.000000e+00
-8.730159e-01 -9.047619e-01 0.000000e+00
-8.412698e-01 -9.047619e-01 0.000000e+00
-8.095238e-01 -9.047619e-01 0.000000e+00
-7.777778e-01 -9.047619e-01 0.000000e+00
-7.460317e-01 -9.047619e-01 0.000000e+00
-7.142857e-01 -9.047619e-01 0.000000e+00
-6.825397e-01 -9.047619e-01 0.000000e+00
-6.507937e-01 -9.047619e-01 0.000000e+00
-6.190476e-01 -9.047619e-01 0.000000e+00
-5.873016e-01 -9.047619e-01 0.000000e+00
-5.555556e-01 -9.047619e-01 0.000000e+00
-5.238095e-01 -9.047619e-01 0.000000e+00
-4.920635e-01 -9.047619e-01 0.000000e+00
-4.603175e-01 -9.047619e-01 0.000000e+00
-4.285714e-01 -9.047619e-01 0.000000e+00
-3.968254e-01 -9.047619e-01 0.000000e+00
-3.650794e-01 -9.047619e-01 0.000000e+00
-3.333333e-01 -9.047619e-01 0.000000e+00
-3.015873e-01 -9.047619e-01 0.000000e+00
-2.698413e-01 -9.047619e-01 0.000000e+00
-2.380952e-01 -9.047619e-01 0.000000e+00
-2.063492e-01 -9.047619e-01 0.000000e+00
-1.746032e-01 -9.047619e-01 0.000000e+00
-1.428571e-01 -9.047619e-01 0.000000e+00
-1.111111e-01 -9.047619e-01 0.000000e+00
-7.936508e-02 -9.047619e-01 0.000000e+00
-4.761905e-02 -9.047619e-01 0.000000e+00
-1.587302e-02 -9.047619e-01 0.000000e+00
1.587302e-02 -9.047619e-01 0.000000e+00
4.761905e-02 -9.047619e-01 0.000000e+00
7.936508e-02 -9.047619e-01 0.000000e+00
1.111111e-01 -9.047619e-01 0.000000e+00
1.428571e-01 -9.047619e-01 0.000000e+00
1.746032e-01 -9.047619e-01 0.000000e+00
2.063492e-01 -9.047619e-01 0.000000e+00
2.380952e-01 -9.047619e-01 0.000000e+00
2.698413e-01 -9.047619e-01 0.000000e+00
3.015873e-01 -9.047619e-01 0.000000e+00
3.333333e-01 -9.047619e-01 0.000000e+00
3.650794e-01 -9.047619e-01 0.000000e+00
3.968254e-01 -9.047619e-01 0.000000e+00
4.285714e-01 -9.047619e-01 0.000000e+00
4.603175e-01 -9.047619e-01 0.000000e+00
4.920635e-01 -9.047619e-01 0.000000e+00
5.238095e-01 -9.047619e-01 0.000000e+00
5.555556e-01 -9.047619e-01 0.000000e+00
5.873016e-01 -9.047619e-01 0.000000e+00
6.190476e-01 -9.047619e-01 0.000000e+00
[...]
POINT_DATA 4096 
SCALARS concentration double 1 
LOOKUP_TABLE default 
1.230453e+00 
1.205122e+00 
1.179970e+00 
1.155068e+00 
1.130440e+00 
1.106101e+00 
1.082068e+00 
1.058359e+00 
1.034990e+00 
1.011983e+00 
9.893564e-01 
9.671330e-01 
9.453358e-01 
9.239893e-01 
9.031192e-01 
8.827530e-01 
8.629196e-01 
8.436493e-01 
8.249745e-01 
8.069290e-01 
7.895483e-01 
7.728698e-01 
7.569324e-01 
7.417766e-01 
7.274446e-01 
7.139811e-01 
7.014325e-01 
6.898443e-01 
6.792613e-01 
6.697281e-01 
6.612885e-01 
6.539847e-01 
6.478573e-01 
6.429422e-01 
6.392720e-01 
6.368901e-01 
6.359225e-01 
6.369048e-01 
6.396461e-01 
6.439182e-01 
6.495801e-01 
6.565449e-01 
6.647492e-01 
6.741370e-01 
6.846536e-01 
6.962451e-01 
7.088584e-01 
7.224422e-01 
7.369465e-01 
7.523228e-01 
7.685235e-01 
7.855021e-01 
8.032145e-01 
8.216184e-01 
8.406738e-01 
8.603431e-01 
8.805906e-01 
9.013828e-01 
9.226883e-01 
9.444773e-01 
9.667222e-01 
9.893968e-01 
1.012476e+00 
1.035942e+00 
1.211487e+00 
1.185822e+00 
1.160326e+00 
1.135072e+00 
1.110083e+00 
1.085375e+00 
1.060965e+00 
1.036869e+00 
1.013106e+00 
9.896950e-01 
9.666574e-01 
9.440152e-01 
9.217917e-01 
9.000119e-01 
8.787024e-01 
8.578911e-01 
8.376078e-01 
8.178842e-01 
7.987538e-01 
7.802519e-01 
7.624159e-01 
7.452851e-01 
7.289008e-01 
7.133059e-01 
6.985455e-01 
6.846681e-01 
6.717231e-01 
6.597595e-01 
6.488261e-01 
6.389715e-01 
6.302436e-01 
6.226888e-01 
6.163518e-01 
6.112724e-01 
6.074860e-01 
6.050400e-01 
6.040757e-01 
6.051654e-01 
6.080656e-01 
6.125348e-01 
6.184329e-01 
6.256740e-01 
6.341928e-01 
6.439295e-01 
6.548246e-01 
6.668196e-01 
6.798572e-01 
6.938823e-01 
7.088411e-01 
7.246820e-01 
7.413538e-01 
7.588075e-01 
7.769962e-01 
7.958758e-01 
8.154046e-01 
8.355432e-01 
8.562549e-01 
8.775052e-01 
8.992616e-01 
9.214940e-01 
9.441739e-01 
9.672747e-01 
9.907717e-01 
1.014645e+00 
1.192996e+00 
1.166992e+00 
1.141150e+00 
1.115541e+00 
1.090189e+00 
1.065108e+00 
1.040316e+00 
1.015828e+00 
9.916646e-01 
9.678442e-01 
9.443880e-01 
9.213182e-01 
8.986588e-01 
8.764351e-01 
8.546740e-01 
8.334045e-01 
8.126570e-01 
7.924645e-01 
7.728615e-01 
7.538852e-01 
7.355747e-01 
7.179713e-01 
7.011186e-01 
6.850623e-01 
6.698505e-01 
6.555355e-01 
6.421702e-01 
6.298074e-01 
6.185002e-01 
6.083019e-01 
5.992649e-01 
5.914403e-01 
5.848775e-01 
5.796200e-01 
5.757077e-01 
5.731923e-01 
5.722312e-01 
5.734365e-01 
5.765046e-01 
5.811825e-01 
5.873324e-01 
5.948690e-01 
6.037240e-01 
6.138328e-01 
6.251307e-01 
6.375538e-01 
6.510404e-01 
6.655314e-01 
6.809691e-01 
6.972977e-01 
7.144626e-01 
7.324117e-01 
7.510958e-01 
7.704685e-01 
7.904865e-01 
8.111090e-01 
8.322980e-01 
8.540179e-01 
8.762358e-01 
8.989205e-01 
9.220433e-01 
9.455772e-01 
9.694973e-01 
9.937824e-01 
1.174995e+00 
1.148650e+00 
1.122461e+00 
1.096496e+00 
1.070778e+00 
1.045322e+00 
1.020144e+00 
9.952607e-01 
9.706912e-01 
9.464549e-01 
9.225729e-01 
8.990675e-01 
8.759628e-01 
8.532846e-01 
8.310603e-01 
8.093194e-01 
7.880933e-01 
7.674160e-01 
7.473234e-01 
7.278542e-01 
7.090492e-01 
6.909520e-01 
6.736085e-01 
6.570670e-01 
6.413793e-01 
6.266012e-01 
6.127896e-01 
6.000015e-01 
5.882951e-01 
5.777285e-01 
5.683594e-01 
5.602444e-01 
5.534378e-01 
5.479882e-01 
5.439399e-01 
5.413499e-01 
5.403923e-01 
5.417224e-01 
5.449679e-01 
5.498673e-01 
5.562870e-01 
5.641409e-01 
5.733564e-01 
5.838634e-01 
5.955907e-01 
6.084694e-01 
6.224329e-01 
6.374172e-01 
6.533601e-01 
6.702014e-01 
6.878827e-01 
7.063491e-01 
7.255488e-01 
7.454333e-01 
7.659575e-01 
7.870794e-01 
8.087596e-01 
8.309618e-01 
8.536521e-01 
8.767989e-01 
9.003731e-01 
9.243475e-01 
9.486968e-01 
9.733991e-01 
1.157502e+00 
1.130817e+00 
1.104280e+00 
1.077959e+00 
1.051873e+00 
1.026039e+00 
1.000472e+00 
9.751900e-01 
9.502102e-01 
9.255526e-01 
9.012382e-01 
8.772895e-01 
8.537308e-01 
8.305879e-01 
8.078889e-01 
7.856638e-01 
7.639450e-01 
7.427672e-01 
7.221677e-01 
7.021867e-01 
6.828668e-01 
6.642537e-01 
6.463957e-01 
6.293442e-01 
6.131542e-01 
5.978856e-01 
5.835995e-01 
5.703578e-01 
5.582240e-01 
5.472620e-01 
5.375354e-01 
5.291069e-01 
5.220366e-01 
5.163789e-01 
5.121835e-01 
5.095129e-01 
5.085594e-01 
5.100237e-01 
5.134558e-01 
5.185916e-01 
5.253015e-01 
5.334972e-01 
5.431006e-01 
5.540345e-01 
5.662210e-01 
5.795854e-01 
5.940556e-01 
6.095622e-01 
6.260378e-01 
6.434176e-01 
6.616395e-01 
6.806454e-01 
7.003812e-01 
7.207963e-01 
7.418439e-01 
7.634804e-01 
7.856655e-01 
8.083620e-01 
8.315353e-01 
8.551534e-01 
8.791869e-01 
9.036082e-01 
9.283922e-01 
9.535162e-01 
1.140536e+00 
1.113512e+00 
1.086629e+00 
1.059950e+00 
1.033496e+00 
1.007283e+00 
9.813258e-01 
9.556412e-01 
9.302474e-01 
9.051638e-01 
8.804113e-01 
8.560125e-01 
8.319916e-01 
8.083747e-01 
7.851901e-01 
7.624686e-01 
7.402430e-01 
7.185492e-01 
6.974256e-01 
6.769137e-01 
6.570580e-01 
6.379062e-01 
6.195091e-01 
6.019210e-01 
5.852006e-01 
5.694120e-01 
5.546209e-01 
5.408946e-01 
5.283026e-01 
5.169150e-01 
5.068025e-01 
4.980345e-01 
4.906781e-01 
4.847945e-01 
4.804394e-01 
4.776817e-01 
4.767324e-01 
4.783399e-01 
4.819680e-01 
4.873574e-01 
4.943809e-01 
5.029462e-01 
5.129680e-01 
5.243607e-01 
5.370394e-01 
5.509226e-01 
5.659321e-01 
5.819922e-01 
5.990298e-01 
6.169753e-01 
6.357630e-01 
6.553318e-01 
6.756248e-01 
6.965896e-01 
7.181776e-01 
7.403439e-01 
7.630473e-01 
7.862497e-01 
8.099159e-01 
8.340139e-01 
8.585136e-01 
8.833878e-01 
9.086111e-01 
9.341605e-01 
1.124117e+00 
1.096754e+00 
1.069525e+00 
1.042490e+00 
1.015669e+00 
9.890759e-01 
9.627269e-01 
9.366383e-01 
9.108277e-01 
8.853145e-01 
8.601192e-01 
8.352642e-01 
8.107738e-01 
7.866742e-01 
7.629941e-01 
7.397644e-01 
7.170188e-01 
6.947939e-01 
6.731291e-01 
6.520672e-01 
6.316544e-01 
6.119403e-01 
5.929782e-01 
5.748258e-01 
5.575452e-01 
5.412048e-01 
5.258757e-01 
5.116311e-01 
4.985469e-01 
4.867008e-01 
4.761707e-01 
4.670343e-01 
4.593667e-01 
4.532368e-01 
4.487079e-01 
4.458558e-01 
4.449112e-01 
4.466696e-01 
4.505054e-01 
4.561681e-01 
4.635317e-01 
4.724980e-01 
4.829724e-01 
4.948599e-01 
5.080677e-01 
5.225064e-01 
5.380902e-01 
5.547371e-01 
5.723678e-01 
5.909077e-01 
6.102875e-01 
6.304429e-01 
6.513147e-01 
6.728483e-01 
6.949935e-01 
7.177044e-01 
7.409387e-01 
7.646578e-01 
7.888262e-01 
8.134115e-01 
8.383837e-01 
8.637155e-01 
8.893816e-01 
9.153588e-01 
1.108247e+00 
1.080541e+00 
1.052969e+00 
1.025580e+00 
9.983929e-01 
9.714221e-01 
9.446823e-01 
9.181897e-01 
8.919615e-01 
8.660167e-01 
8.403756e-01 
8.150603e-01 
7.900950e-01 
7.655060e-01 
7.413219e-01 
7.175740e-01 
6.942966e-01 
6.715266e-01 
6.493046e-01 
6.276743e-01 
6.066835e-01 
5.863835e-01 
5.668305e-01 
5.480848e-01 
5.302128e-01 
5.132875e-01 
4.973853e-01 
4.825861e-01 
4.689732e-01 
4.566320e-01 
4.456498e-01 
4.361130e-01 
4.281062e-01 
4.217072e-01 
4.169888e-01 
4.140344e-01 
4.130952e-01 
4.150132e-01 
4.190710e-01 
4.250300e-01 
4.327642e-01 
4.421670e-01 
4.531325e-01 
4.655555e-01 
4.793333e-01 
4.943673e-01 
5.105636e-01 
5.278324e-01 
5.460885e-01 
5.652525e-01 
5.852512e-01 
6.060172e-01 
6.274888e-01 
6.496096e-01 
6.723281e-01 
6.955971e-01 
7.193738e-01 
7.436190e-01 
7.682972e-01 
7.933756e-01 
8.188247e-01 
8.446170e-01 
8.707275e-01 
8.971336e-01 
1.092873e+00 
1.064849e+00 
1.036943e+00 
1.009207e+00 
9.816614e-01 
9.543184e-01 
9.271930e-01 
9.003007e-01 
8.736584e-01 
8.472845e-01 
8.211989e-01 
7.954234e-01 
7.699819e-01 
7.449005e-01 
7.202078e-01 
6.959353e-01 
6.721174e-01 
6.487916e-01 
6.259990e-01 
6.037843e-01 
5.821965e-01 
5.612889e-01 
5.411198e-01 
5.217527e-01 
5.032577e-01 
4.857129e-01 
4.692007e-01 
4.538080e-01 
4.396260e-01 
4.267496e-01 
4.152758e-01 
4.053021e-01 
3.969237e-01 
3.902295e-01 
3.853024e-01 
3.822345e-01 
3.812974e-01 
3.833613e-01 
3.876505e-01 
3.939288e-01 
4.020659e-01 
4.119439e-01 
4.234435e-01 
4.364471e-01 
4.508403e-01 
4.665140e-01 
4.833649e-01 
5.012948e-01 
5.202122e-01 
5.400329e-01 
5.606797e-01 
5.820821e-01 
6.041760e-01 
6.269034e-01 
6.502114e-01 
6.740523e-01 
6.983825e-01 
7.231628e-01 
7.483575e-01 
7.739342e-01 
7.998632e-01 
8.261176e-01 
8.526729e-01 
8.795068e-01 
1.078221e+00 
1.049873e+00 
1.021632e+00 
9.935496e-01 
9.656436e-01 
9.379272e-01 
9.104142e-01 
8.831195e-01 
8.560595e-01 
8.292520e-01 
8.027163e-01 
7.764738e-01 
7.505481e-01 
7.249649e-01 
6.997526e-01 
6.749427e-01 
6.505695e-01 
6.266707e-01 
6.032877e-01 
5.804659e-01 
5.582554e-01 
5.367110e-01 
5.158933e-01 
4.958690e-01 
4.767121e-01 
4.585056e-01 
4.413384e-01 
4.253050e-01 
4.105057e-01 
3.970458e-01 
3.850337e-01 
3.745797e-01 
3.657923e-01 
3.587734e-01 
3.536178e-01 
3.504278e-01 
3.494961e-01 
3.517295e-01 
3.562743e-01 
3.629057e-01 
3.714877e-01 
3.818885e-01 
3.939727e-01 
4.076082e-01 
4.226675e-01 
4.390291e-01 
4.565786e-01 
4.752093e-01 
4.948237e-01 
5.153325e-01 
5.366546e-01 
5.587166e-01 
5.814526e-01 
6.048028e-01 
6.287135e-01 
6.531365e-01 
6.780280e-01 
7.033489e-01 
7.290635e-01 
7.551399e-01 
7.815487e-01 
8.082635e-01 
8.352606e-01 
8.625186e-01 
1.064212e+00 
1.035544e+00 
1.006973e+00 
9.785496e-01 
9.502886e-01 
9.222031e-01 
8.943062e-01 
8.666122e-01 
8.391368e-01 
8.118970e-01 
7.849117e-01 
7.582016e-01 
7.317897e-01 
7.057012e-01 
6.799644e-01 
6.546101e-01 
6.296723e-01 
6.051888e-01 
5.812007e-01 
5.577539e-01 
5.348991e-01 
5.126926e-01 
4.911970e-01 
4.704821e-01 
4.506259e-01 
4.317161e-01 
4.138485e-01 
3.971259e-01 
3.816586e-01 
3.675632e-01 
3.549617e-01 
3.439788e-01 
3.347389e-01 
3.273592e-01 
3.219493e-01 
3.186238e-01 
3.176963e-01 
3.201088e-01 
3.249289e-01 
3.319486e-01 
3.410226e-01 
3.520004e-01 
3.647274e-01 
3.790537e-01 
3.948359e-01 
4.119387e-01 
4.302359e-01 
4.496120e-01 
4.699630e-01 
4.911946e-01 
5.132221e-01 
5.359696e-01 
5.593693e-01 
5.833605e-01 
6.078889e-01 
6.329060e-01 
6.583682e-01 
6.842367e-01 
7.104764e-01 
7.370557e-01 
7.639461e-01 
7.911221e-01 
8.185611e-01 
8.462426e-01 
1.050869e+00 
1.021888e+00 
9.929949e-01 
9.642361e-01 
9.356263e-01 
9.071776e-01 
8.789022e-01 
8.508137e-01 
8.229270e-01 
7.952582e-01 
7.678256e-01 
7.406492e-01 
7.137511e-01 
6.871562e-01 
6.608917e-01 
6.349879e-01 
6.094783e-01 
5.843998e-01 
5.597933e-01 
5.357046e-01 
5.121849e-01 
4.892914e-01 
4.670886e-01 
4.456492e-01 
4.250548e-01 
4.053978e-01 
3.867812e-01 
3.693166e-01 
3.531249e-01 
3.383359e-01 
3.250868e-01 
3.135197e-01 
3.037771e-01 
2.959953e-01 
2.903018e-01 
2.868264e-01 
2.859019e-01 
2.885021e-01 
2.936212e-01 
3.010716e-01 
3.106934e-01 
3.223114e-01 
3.357476e-01 
3.508305e-01 
3.673976e-01 
3.852984e-01 
4.043945e-01 
4.245614e-01 
4.456885e-01 
4.676768e-01 
4.904383e-01 
5.138949e-01 
5.379775e-01 
5.626249e-01 
5.877825e-01 
6.134022e-01 
6.394410e-01 
6.658605e-01 
6.926265e-01 
7.197082e-01 
7.470784e-01 
7.747129e-01 
8.025902e-01 
8.306908e-01 
1.038215e+00 
1.008930e+00 
9.797231e-01 
9.506375e-01 
9.216870e-01 
8.928827e-01 
8.642361e-01 
8.357599e-01 
8.074680e-01 
7.793758e-01 
7.515007e-01 
7.238616e-01 
6.964800e-01 
6.693795e-01 
6.425867e-01 
6.161306e-01 
5.900437e-01 
5.643621e-01 
5.391258e-01 
5.143800e-01 
4.901760e-01 
4.665716e-01 
4.436330e-01 
4.214350e-01 
4.000627e-01 
3.796130e-01 
3.601956e-01 
3.419315e-01 
3.249533e-01 
3.094053e-01 
2.954423e-01 
2.832265e-01 
2.729227e-01 
2.646898e-01 
2.586782e-01 
2.550358e-01 
2.541134e-01 
2.569106e-01 
2.623576e-01 
2.702905e-01 
2.805270e-01 
2.928598e-01 
3.070815e-01 
3.229945e-01 
3.404151e-01 
3.591752e-01 
3.791243e-01 
4.001288e-01 
4.220718e-01 
4.448499e-01 
4.683724e-01 
4.925597e-01 
5.173420e-01 
5.426580e-01 
5.684537e-01 
5.946815e-01 
6.212995e-01 
6.482704e-01 
6.755609e-01 
7.031420e-01 
7.309879e-01 
7.590759e-01 
7.873854e-01 
8.158982e-01 
1.026272e+00 
9.966918e-01 
9.671807e-01 
9.377781e-01 
9.084966e-01 
8.793464e-01 
8.503381e-01 
8.214833e-01 
7.927949e-01 
7.642875e-01 
7.359772e-01 
7.078821e-01 
6.800225e-01 
6.524208e-01 
6.251021e-01 
5.980942e-01 
5.714280e-01 
5.451380e-01 
5.192632e-01 
4.938478e-01 
4.689424e-01 
4.446053e-01 
4.209035e-01 
3.979137e-01 
3.757236e-01 
3.544343e-01 
3.341617e-01 
3.150362e-01 
2.972028e-01 
2.808220e-01 
2.660688e-01 
2.531295e-01 
2.421952e-01 
2.334524e-01 
2.270813e-01 
2.232526e-01 
2.223309e-01 
2.253357e-01 
2.311456e-01 
2.396253e-01 
2.505575e-01 
2.636934e-01 
2.787888e-01 
2.956150e-01 
3.139639e-01 
3.336493e-01 
3.545077e-01 
3.763972e-01 
3.991950e-01 
4.227943e-01 
4.471024e-01 
4.720389e-01 
4.975343e-01 
5.235278e-01 
5.499666e-01 
5.768045e-01 
6.040009e-01 
6.315198e-01 
6.593303e-01 
6.874049e-01 
7.157195e-01 
7.442528e-01 
7.729857e-01 
8.019013e-01 
1.015049e+00 
9.851872e-01 
9.553841e-01 
9.256768e-01 
8.960767e-01 
8.665928e-01 
8.372348e-01 
8.080133e-01 
7.789402e-01 
7.500289e-01 
7.212944e-01 
6.927534e-01 
6.644249e-01 
6.363300e-01 
6.084918e-01 
5.809365e-01 
5.536929e-01 
5.267936e-01 
5.002759e-01 
4.741824e-01 
4.485627e-01 
4.234747e-01 
3.989853e-01 
3.751722e-01 
3.521253e-01 
3.299487e-01 
3.087640e-01 
2.887103e-01 
2.699459e-01 
2.526491e-01 
2.370180e-01 
2.232670e-01 
2.116190e-01 
2.022951e-01 
1.955143e-01 
1.914760e-01 
1.905544e-01 
1.937789e-01 
1.999951e-01 
2.091022e-01 
2.208293e-01 
2.348736e-01 
2.509446e-01 
2.687774e-01 
2.881364e-01 
3.088167e-01 
3.306424e-01 
3.534638e-01 
3.771533e-01 
4.016018e-01 
4.267160e-01 
4.524160e-01 
4.786331e-01 
5.053082e-01 
5.323905e-01 
5.598355e-01 
5.876046e-01 
6.156646e-01 
6.439865e-01 
6.725449e-01 
7.013175e-01 
7.302846e-01 
7.594288e-01 
7.887346e-01 
1.004562e+00 
9.744327e-01 
9.443524e-01 
9.143554e-01 
8.844518e-01 
8.546495e-01 
8.249572e-01 
7.953845e-01 
7.659419e-01 
7.366418e-01 
7.074977e-01 
6.785251e-01 
6.497412e-01 
6.211652e-01 
5.928183e-01 
5.647244e-01 
5.369099e-01 
5.094052e-01 
4.822449e-01 
4.554699e-01 
4.291279e-01 
4.032753e-01 
3.779780e-01 
3.533136e-01 
3.293725e-01 
3.062612e-01 
2.841051e-01 
2.630520e-01 
2.432730e-01 
2.249659e-01 
2.083550e-01 
1.936878e-01 
1.812256e-01 
1.712328e-01 
1.639803e-01 
1.597033e-01 
1.587835e-01 
1.622416e-01 
1.689184e-01 
1.787557e-01 
1.914007e-01 
2.064795e-01 
2.236444e-01 
2.425881e-01 
2.630457e-01 
2.847937e-01 
3.076447e-01 
3.314425e-01 
3.560569e-01 
3.813780e-01 
4.073134e-01 
4.337850e-01 
4.607264e-01 
4.880812e-01 
5.158011e-01 
5.438445e-01 
5.721760e-01 
6.007648e-01 
6.295847e-01 
6.586123e-01 
6.878275e-01 
7.172125e-01 
7.467516e-01 
7.764311e-01 
9.948478e-01 
9.644674e-01 
9.341260e-01 
9.038556e-01 
8.736651e-01 
8.435613e-01 
8.135518e-01 
7.836449e-01 
7.538502e-01 
7.241783e-01 
6.946415e-01 
6.652536e-01 
6.360300e-01 
6.069878e-01 
5.781462e-01 
5.495262e-01 
5.211519e-01 
4.930507e-01 
4.652545e-01 
4.378012e-01 
4.107359e-01 
3.841121e-01 
3.579936e-01 
3.324559e-01 
3.075885e-01 
2.834981e-01 
2.603124e-01 
2.381856e-01 
2.173016e-01 
1.978780e-01 
1.801683e-01 
1.644596e-01 
1.510616e-01 
1.402920e-01 
1.324906e-01 
1.279389e-01 
1.270212e-01 
1.307173e-01 
1.379222e-01 
1.486210e-01 
1.623367e-01 
1.786015e-01 
1.969979e-01 
2.171698e-01 
2.388221e-01 
2.617133e-01 
2.856469e-01 
3.104632e-01 
3.360314e-01 
3.622433e-01 
3.890095e-01 
4.162550e-01 
4.439175e-01 
4.719441e-01 
5.002903e-01 
5.289186e-01 
5.577970e-01 
5.868979e-01 
6.161976e-01 
6.456755e-01 
6.753138e-01 
7.050968e-01 
7.350107e-01 
7.650436e-01 
9.860230e-01 
9.554051e-01 
9.248156e-01 
8.942852e-01 
8.638217e-01 
8.334310e-01 
8.031194e-01 
7.728941e-01 
7.427634e-01 
7.127366e-01 
6.828243e-01 
6.530385e-01 
6.233926e-01 
5.939013e-01 
5.645811e-01 
5.354503e-01 
5.065297e-01 
4.778436e-01 
4.494207e-01 
4.212952e-01 
3.935088e-01 
3.661110e-01 
3.391618e-01 
3.127329e-01 
2.869106e-01 
2.617993e-01 
2.375267e-01 
2.142501e-01 
1.921637e-01 
1.715041e-01 
1.525568e-01 
1.356554e-01 
1.211702e-01 
1.094860e-01 
1.010367e-01 
9.616230e-02 
9.526456e-02 
9.922238e-02 
1.070456e-01 
1.187862e-01 
1.337683e-01 
1.514030e-01 
1.711876e-01 
1.927134e-01 
2.156562e-01 
2.397605e-01 
2.648250e-01 
2.906903e-01 
3.172289e-01 
3.443373e-01 
3.719311e-01 
3.999411e-01 
4.283103e-01 
4.569910e-01 
4.859440e-01 
5.151360e-01 
5.445388e-01 
5.741284e-01 
6.038842e-01 
6.337884e-01 
6.638257e-01 
6.939827e-01 
7.242477e-01 
7.546105e-01 
9.780559e-01 
9.472171e-01 
9.163975e-01 
8.856258e-01 
8.549087e-01 
8.242512e-01 
7.936583e-01 
7.631362e-01 
7.326916e-01 
7.023324e-01 
6.720676e-01 
6.419072e-01 
6.118623e-01 
5.819452e-01 
5.521696e-01 
5.225507e-01 
4.931062e-01 
4.638566e-01 
4.348270e-01 
4.060475e-01 
3.775549e-01 
3.493938e-01 
3.216183e-01 
2.942941e-01 
2.675014e-01 
2.413394e-01 
2.159315e-01 
1.914338e-01 
1.680452e-01 
1.460182e-01 
1.256704e-01 
1.073915e-01 
9.163199e-02 
7.885869e-02 
6.963514e-02 
6.438149e-02 
6.352854e-02 
6.775403e-02 
7.631110e-02 
8.933918e-02 
1.058355e-01 
1.250622e-01 
1.464136e-01 
1.694269e-01 
1.937542e-01 
2.191336e-01 
2.453658e-01 
2.722980e-01 
2.998104e-01 
3.278080e-01 
3.562147e-01 
3.849691e-01 
4.140214e-01 
4.433308e-01 
4.728636e-01 
5.025914e-01 
5.324905e-01 
5.625408e-01 
5.927251e-01 
6.230286e-01 
6.534386e-01 
6.839442e-01 
7.145358e-01 
7.452050e-01 
9.709678e-01 
9.399265e-01 
9.088960e-01 
8.779032e-01 
8.469539e-01 
8.160518e-01 
7.852009e-01 
7.544062e-01 
7.236730e-01 
6.930076e-01 
6.624173e-01 
6.319100e-01 
6.014946e-01 
5.711807e-01 
5.409793e-01 
5.109024e-01 
4.809642e-01 
4.511819e-01 
4.215760e-01 
3.921720e-01 
3.630010e-01 
3.341010e-01 
3.055186e-01 
2.773110e-01 
2.495495e-01 
2.223234e-01 
1.957468e-01 
1.699676e-01 
1.451808e-01 
1.216456e-01 
9.970777e-02 
7.982328e-02 
6.255465e-02 
4.846459e-02 
3.830360e-02 
3.261049e-02 
3.181905e-02 
3.631387e-02 
4.576155e-02 
6.043146e-02 
7.875960e-02 
9.984723e-02 
1.229624e-01 
1.475944e-01 
1.733861e-01 
2.000823e-01 
2.274969e-01 
2.554915e-01 
2.839599e-01 
3.128200e-01 
3.420072e-01 
3.714704e-01 
4.011685e-01 
4.310682e-01 
4.611421e-01 
4.913675e-01 
5.217254e-01 
5.521997e-01 
5.827769e-01 
6.134454e-01 
6.441954e-01 
6.750181e-01 
7.059061e-01 
7.368530e-01 
9.647950e-01 
9.335709e-01 
9.023496e-01 
8.711572e-01 
8.399981e-01 
8.088752e-01 
7.777915e-01 
7.467506e-01 
7.157565e-01 
6.848141e-01 
6.539285e-01 
6.231059e-01 
5.923528e-01 
5.616764e-01 
5.310847e-01 
5.005869e-01 
4.701939e-01 
4.399190e-01 
4.097783e-01 
3.797919e-01 
3.499844e-01 
3.203864e-01 
2.910351e-01 
2.619774e-01 
2.332718e-01 
2.049937e-01 
1.772411e-01 
1.501444e-01 
1.238813e-01 
9.869993e-02 
7.495692e-02 
5.317833e-02 
3.409889e-02 
1.838159e-02 
7.062947e-03 
8.608893e-04 
1.053025e-04 
4.899117e-03 
1.546237e-02 
3.231043e-02 
5.287416e-02 
7.615109e-02 
1.012320e-01 
1.275908e-01 
1.548922e-01 
1.829102e-01 
2.114866e-01 
2.405068e-01 
2.698851e-01 
2.995564e-01 
3.294707e-01 
3.595887e-01 
3.898790e-01 
4.203165e-01 
4.508807e-01 
4.815545e-01 
5.123240e-01 
5.431774e-01 
5.741047e-01 
6.050975e-01 
6.361486e-01 
6.672517e-01 
6.984013e-01 
7.295929e-01 
9.595770e-01 
9.281905e-01 
8.967994e-01 
8.654293e-01 
8.340840e-01 
8.027655e-01 
7.714756e-01 
7.402169e-01 
7.089920e-01 
6.778042e-01 
6.466571e-01 
6.155546e-01 
5.845012e-01 
5.535019e-01 
5.225621e-01 
4.916883e-01 
4.608882e-01 
4.301712e-01 
3.995491e-01 
3.690362e-01 
3.386505e-01 
3.084141e-01 
2.783545e-01 
2.485061e-01 
2.189128e-01 
1.896317e-01 
1.607385e-01 
1.323360e-01 
1.045666e-01 
7.763391e-02 
5.185813e-02 
2.780286e-02 
6.514822e-03 
-1.071495e-02 
-2.304242e-02 
-3.013823e-02 
-3.104008e-02 
-2.512410e-02 
-1.317547e-02 
5.419423e-03 
2.870546e-02 
5.458390e-02 
8.178793e-02 
1.099103e-01 
1.386964e-01 
1.679791e-01 
1.976438e-01 
2.276087e-01 
2.578141e-01 
2.882152e-01 
3.187775e-01 
3.494746e-01 
3.802851e-01 
4.111924e-01 
4.421827e-01 
4.732447e-01 
5.043693e-01 
5.355486e-01 
5.667762e-01 
5.980464e-01 
6.293546e-01 
6.606966e-01 
6.920689e-01 
7.234684e-01 
9.553678e-01 
9.238389e-01 
8.922982e-01 
8.607725e-01 
8.292646e-01 
7.977758e-01 
7.663071e-01 
7.348600e-01 
7.034358e-01 
6.720364e-01 
6.406639e-01 
6.093205e-01 
5.780087e-01 
5.467316e-01 
5.154924e-01 