# vtk DataFile Version 2.0 
Quadtree Mesh 
ASCII 
DATASET UNSTRUCTURED_GRID 
POINTS 4096 double 
-1.000000e+00 -1.000000e+00 0.000000e+00
-9.682540e-01 -1.000000e+00 0.000000e+00
-9.365079e-01 -1.000000e+00 0.000000e+00
-9.047619e-01 -1.000000e+00 0.000000e+00
-8.730159e-01 -1.000000e+00 0.000000e+00
-8.412698e-01 -1.000000e+00 0.000000e+00
-8.095238e-01 -1.000000e+00 0.000000e+00
-7.777778e-01 -1.000000e+00 0.000000e+00
-7.460317e-01 -1.000000e+00 0.000000e+00
-7.142857e-01 -1.000000e+00 0.000000e+00
-6.825397e-01 -1.000000e+00 0.000000e+00
-6.507937e-01 -1.000000e+00 0.000000e+00
-6.190476e-01 -1.000000e+00 0.000000e+00
-5.873016e-01 -1.000000e+00 0.000000e+00
-5.555556e-01 -1.000000e+00 0.000000e+00
-5.238095e-01 -1.000000e+00 0.000000e+00
-4.920635e-01 -1.000000e+00 0.000000e+00
-4.603175e-01 -1.000000e+00 0.000000e+00
-4.285714e-01 -1.000000e+00 0.000000e+00
-3.968254e-01 -1.000000e+00 0.000000e+00
-3.650794e-01 -1.000000e+00 0.000000e+00
-3.333333e-01 -1.000000e+00 0.000000e+00
-3.015873e-01 -1.000000e+00 0.000000e+00
-2.698413e-01 -1.000000e+00 0.000000e+00
-2.380952e-01 -1.000000e+00 0.000000e+00
-2.063492e-01 -1.000000e+00 0.000000e+00
-1.746032e-01 -1.000000e+00 0.000000e+00
-1.428571e-01 -1.000000e+00 0.000000e+00
-1.111111e-01 -1.000000e+00 0.000000e+00
-7.936508e-02 -1.000000e+00 0.000000e+00
-4.761905e-02 -1.000000e+00 0.000000e+00
-1.587302e-02 -1.000000e+00 0.000000e+00
1.587302e-02 -1.000000e+00 0.000000e+00
4.761905e-02 -1.000000e+00 0.000000e+00
7.936508e-02 -1.000000e+00 0.000000e+00
1.111111e-01 -1.000000e+00 0.000000e+00
1.428571e-01 -1.000000e+00 0.000000e+00
1.746032e-01 -1.000000e+00 0.000000e+00
2.063492e-01 -1.000000e+00 0.000000e+00
2.380952e-01 -1.000000e+00 0.000000e+00
2.698413e-01 -1.000000e+00 0.000000e+00
3.015873e-01 -1.000000e+00 0.000000e+00
3.333333e-01 -1.000000e+00 0.000000e+00
3.650794e-01 -1.000000e+00 0.000000e+00
3.968254e-01 -1.000000e+00 0.000000e+00
4.285714e-01 -1.000000e+00 0.000000e+00
4.603175e-01 -1.000000e+00 0.000000e+00
4.920635e-01 -1.000000e+00 0.000000e+00
5.238095e-01 -1.000000e+00 0.000000e+00
5.555556e-01 -1.000000e+00 0.000000e+00
5.873016e-01 -1.000000e+00 0.000000e+00
6.190476e-01 -1.000000e+00 0.000000e+00
6.507937e-01 -1.000000e+00 0.000000e+00
6.825397e-01 -1.000000e+00 0.000000e+00
7.142857e-01 -1.000000e+00 0.000000e+00
7.460317e-01 -1.000000e+00 0.000000e+00
7.777778e-01 -1.000000e+00 0.000000e+00
8.095238e-01 -1.000000e+00 0.000000e+00
8.412698e-01 -1.000000e+00 0.000000e+00
8.730159e-01 -1.000000e+00 0.000000e+00
9.047619e-01 -1.000000e+00 0.000000e+00
9.365079e-01 -1.000000e+00 0.000000e+00
9.682540e-01 -1.000000e+00 0.000000e+00
1.000000e+00 -1.000000e+00 0.000000e+00
-1.000000e+00 -9.682540e-01 0.000000e+00
-9.682540e-01 -9.682540e-01 0.000000e+00
-9.365079e-01 -9.682540e-01 0.000000e+00
-9.047619e-01 -9.682540e-01 0.000000e+00
-8.730159e-01 -9.682540e-01 0.000000e+00
-8.412698e-01 -9.682540e-01 0.000000e+00
-8.095238e-01 -9.682540e-01 0.000000e+00
-7.777778e-01 -9.682540e-01 0.000000e+00
-7.460317e-01 -9.682540e-01 0.000000e+00
-7.142857e-01 -9.682540e-01 0.000000e+00
-6.825397e-01 -9.682540e-01 0.000000e+00
-6.507937e-01 -9.682540e-01 0.000000e+00
-6.190476e-01 -9.682540e-01 0.000000e+00
-5.873016e-01 -9.682540e-01 0.000000e+00
-5.555556e-01 -9.682540e-01 0.000000e+00
-5.238095e-01 -9.682540e-01 0.000000e+00
-4.920635e-01 -9.682540e-01 0.000000e+00
-4.603175e-01 -9.682540e-01 0.000000e+00
-4.285714e-01 -9.682540e-01 0.000000e+00
-3.968254e-01 -9.682540e-01 0.000000e+00
-3.650794e-01 -9.682540e-01 0.000000e+00
-3.333333e-01 -9.682540e-01 0.000000e+00
-3.015873e-01 -9.682540e-01 0.000000e+00
-2.698413e-01 -9.682540e-01 0.000000e+00
-2.380952e-01 -9.682540e-01 0.000000e+00
-2.063492e-01 -9.682540e-01 0.000000e+00
-1.746032e-01 -9.682540e-01 0.000000e+00
-1.428571e-01 -9.682540e-01 0.000000e+00
-1.111111e-01 -9.682540e-01 0.000000e+00
-7.936508e-02 -9.682540e-01 0.000000e+00
-4.761905e-02 -9.682540e-01 0.000000e+00
-1.587302e-02 -9.682540e-01 0.000000e+00
1.587302e-02 -9.682540e-01 0.000000e+00
4.761905e-02 -9.682540e-01 0.000000e+00
7.936508e-02 -9.682540e-01 0.000000e+00
1.111111e-01 -9.682540e-01 0.000000e+00
1.428571e-01 -9.682540e-01 0.000000e+00
1.746032e-01 -9.682540e-01 0.000000e+00
2.063492e-01 -9.682540e-01 0.000000e+00
2.380952e-01 -9.682540e-01 0.000000e+00
2.698413e-01 -9.682540e-01 0.000000e+00
3.015873e-01 -9.682540e-01 0.000000e+00
3.333333e-01 -9.682540e-01 0.000000e+00
3.650794e-01 -9.682540e-01 0.000000e+00
3.968254e-01 -9.682540e-01 0.000000e+00
4.285714e-01 -9.682540e-01 0.000000e+00
4.603175e-01 -9.682540e-01 0.000000e+00
4.920635e-01 -9.682540e-01 0.000000e+00
5.238095e-01 -9.682540e-01 0.000000e+00
5.555556e-01 -9.682540e-01 0.000000e+00
5.873016e-01 -9.682540e-01 0.000000e+00
6.190476e-01 -9.682540e-01 0.000000e+00
6.507937e-01 -9.682540e-01 0.000000e+00
6.825397e-01 -9.682540e-01 0.000000e+00
7.142857e-01 -9.682540e-01 0.000000e+00
7.460317e-01 -9.682540e-01 0.000000e+00
7.777778e-01 -9.682540e-01 0.000000e+00
8.095238e-01 -9.682540e-01 0.000000e+00
8.412698e-01 -9.682540e-01 0.000000e+00
8.730159e-01 -9.682540e-01 0.000000e+00
9.047619e-01 -9.682540e-01 0.000000e+00
9.365079e-01 -9.682540e-01 0.000000e+00
9.682540e-01 -9.682540e-01 0.000000e+00
1.000000e+00 -9.682540e-01 0.000000e+00
-1.000000e+00 -9.365079e-01 0.000000e+00
-9.682540e-01 -9.365079e-01 0.000000e+00
-9.365079e-01 -9.365079e-01 0.000000e+00
-9.047619e-01 -9.365079e-01 0.000000e+00
-8.730159e-01 -9.365079e-01 0.000000e+00
-8.412698e-01 -9.365079e-01 0.000000e+00
-8.095238e-01 -9.365079e-01 0.000000e+00
-7.777778e-01 -9.365079e-01 0.000000e+00
-7.460317e-01 -9.365079e-01 0.000000e+00
-7.142857e-01 -9.365079e-01 0.000000e+00
-6.825397e-01 -9.365079e-01 0.000000e+00
-6.507937e-01 -9.365079e-01 0.000000e+00
-6.190476e-01 -9.365079e-01 0.000000e+00
-5.873016e-01 -9.365079e-01 0.000000e+00
-5.555556e-01 -9.365079e-01 0.000000e+00
-5.238095e-01 -9.365079e-01 0.000000e+00
-4.920635e-01 -9.365079e-01 0.000000e+00
-4.603175e-01 -9.365079e-01 0.000000e+00
-4.285714e-01 -9.365079e-01 0.000000e+00
-3.968254e-01 -9.365079e-01 0.000000e+00
-3.650794e-01 -9.365079e-01 0.000000e+00
-3.333333e-01 -9.365079e-01 0.000000e+00
-3.015873e-01 -9.365079e-01 0.000000e+00
-2.698413e-01 -9.365079e-01 0.000000e+00
-2.380952e-01 -9.365079e-01 0.000000e+00
-2.063492e-01 -9.365079e-01 0.000000e+00
-1.746032e-01 -9.365079e-01 0.000000e+00
-1.428571e-01 -9.365079e-01 0.000000e+00
-1.111111e-01 -9.365079e-01 0.000000e+00
-7.936508e-02 -9.365079e-01 0.000000e+00
-4.761905e-02 -9.365079e-01 0.000000e+00
-1.587302e-02 -9.365079e-01 0.000000e+00
1.587302e-02 -9.365079e-01 0.000000e+00
4.761905e-02 -9.365079e-01 0.000000e+00
7.936508e-02 -9.365079e-01 0.000000e+00
1.111111e-01 -9.365079e-01 0.000000e+00
1.428571e-01 -9.365079e-01 0.000000e+00
1.746032e-01 -9.365079e-01 0.000000e+00
2.063492e-01 -9.365079e-01 0.000000e+00
2.380952e-01 -9.365079e-01 0.000000e+00
2.698413e-01 -9.365079e-01 0.000000e+00
3.015873e-01 -9.365079e-01 0.000000e+00
3.333333e-01 -9.365079e-01 0.000000e+00
3.650794e-01 -9.365079e-01 0.000000e+00
3.968254e-01 -9.365079e-01 0.000000e+00
4.285714e-01 -9.365079e-01 0.000000e+00
4.603175e-01 -9.365079e-01 0.000000e+00
4.920635e-01 -9.365079e-01 0.000000e+00
5.238095e-01 -9.365079e-01 0.000000e+00
5.555556e-01 -9.365079e-01 0.000000e+00
5.873016e-01 -9.365079e-01 0.000000e+00
6.190476e-01 -9.365079e-01 0.000000e+00
6.507937e-01 -9.365079e-01 0.000000e+00
6.825397e-01 -9.365079e-01 0.000000e+00
7.142857e-01 -9.365079e-01 0.000000e+00
7.460317e-01 -9.365079e-01 0.000000e+00
7.777778e-01 -9.365079e-01 0.000000e+00
8.095238e-01 -9.365079e-01 0.000000e+00
8.412698e-01 -9.365079e-01 0.000000e+00
8.730159e-01 -9.365079e-01 0.000000e+00
9.047619e-01 -9.365079e-01 0.000000e+00
9.365079e-01 -9.365079e-01 0.000000e+00
9.682540e-01 -9.365079e-01 0.000000e+00
1.000000e+00 -9.365079e-01 0.000000e+00
-1.000000e+00 -9.047619e-01 0.000000e+00
-9.682540e-01 -9.047619e-01 0.000000e+00
-9.365079e-01 -9.047619e-01 0.000000e+00
-9.047619e-01 -9.047619e-01 0.000000e+00
-8.730159e-01 -9.047619e-01 0.000000e+00
-8.412698e-01 -9.047619e-01 0.000000e+00
-8.095238e-01 -9.047619e-01 0.000000e+00
-7.777778e-01 -9.047619e-01 0.000000e+00
-7.460317e-01 -9.047619e-01 0.000000e+00
-7.142857e-01 -9.047619e-01 0.000000e+00
-6.825397e-01 -9.047619e-01 0.000000e+00
-6.507937e-01 -9.047619e-01 0.000000e+00
-6.190476e-01 -9.047619e-01 0.000000e+00
-5.873016e-01 -9.047619e-01 0.000000e+00
-5.555556e-01 -9.047619e-01 0.000000e+00
-5.238095e-01 -9.047619e-01 0.000000e+00
-4.920635e-01 -9.047619e-01 0.000000e+00
-4.603175e-01 -9.047619e-01 0.000000e+00
-4.285714e-01 -9.047619e-01 0.000000e+00
-3.968254e-01 -9.047619e-01 0.000000e+00
-3.650794e-01 -9.047619e-01 0.000000e+00
-3.333333e-01 -9.047619e-01 0.000000e+00
-3.015873e-01 -9.047619e-01 0.000000e+00
-2.698413e-01 -9.047619e-01 0.000000e+00
-2.380952e-01 -9.047619e-01 0.000000e+00
-2.063492e-01 -9.047619e-01 0.000000e+00
-1.746032e-01 -9.047619e-01 0.000000e+00
-1.428571e-01 -9.047619e-01 0.000000e+00
-1.111111e-01 -9.047619e-01 0.000000e+00
-7.936508e-02 -9.047619e-01 0.000000e+00
-4.761905e-02 -9.047619e-01 0.000000e+00
-1.587302e-02 -9.047619e-01 0.000000e+00
1.587302e-02 -9.047619e-01 0.000000e+00
4.761905e-02 -9.047619e-01 0.000000e+00
7.936508e-02 -9.047619e-01 0.000000e+00
1.111111e-01 -9.047619e-01 0.000000e+00
1.428571e-01 -9.047619e-01 0.000000e+00
1.746032e-01 -9.047619e-01 0.000000e+00
2.063492e-01 -9.047619e-01 0.000000e+00
2.380952e-01 -9.047619e-01 0.000000e+00
2.698413e-01 -9.047619e-01 0.000000e+00
3.015873e-01 -9.047619e-01 0.000000e+00
3.333333e-01 -9.047619e-01 0.000000e+00
3.650794e-01 -9.047619e-01 0.000000e+00
3.968254e-01 -9.047619e-01 0.000000e+00
4.285714e-01 -9.047619e-01 0.000000e+00
4.603175e-01 -9.047619e-01 0.000000e+00
4.920635e-01 -9.047619e-01 0.000000e+00
5.238095e-01 -9.047619e-01 0.000000e+00
5.555556e-01 -9.047619e-01 0.000000e+00
5.873016e-01 -9.047619e-01 0.000000e+00
6.190476e-01 -9.047619e-01 0.000000e+00
[...]
POINT_DATA 4096 
SCALARS concentration double 1 
LOOKUP_TABLE default 
1.443439e+00 
1.419505e+00 
1.395752e+00 
1.372231e+00 
1.348961e+00 
1.325961e+00 
1.303244e+00 
1.280828e+00 
1.258729e+00 
1.236963e+00 
1.215547e+00 
1.194499e+00 
1.173838e+00 
1.153580e+00 
1.133746e+00 
1.114354e+00 
1.095425e+00 
1.076978e+00 
1.059036e+00 
1.041620e+00 
1.024753e+00 
1.008460e+00 
9.927641e-01 
9.776921e-01 
9.632698e-01 
9.495240e-01 
9.364821e-01 
9.241719e-01 
9.126215e-01 
9.018590e-01 
8.919126e-01 
8.828105e-01 
8.745801e-01 
8.672445e-01 
8.608230e-01 
8.553356e-01 
8.508019e-01 
8.472401e-01 
8.446686e-01 
8.431127e-01 
8.427262e-01 
8.438188e-01 
8.462866e-01 
8.499871e-01 
8.548055e-01 
8.606632e-01 
8.675064e-01 
8.752951e-01 
8.839956e-01 
8.935774e-01 
9.040109e-01 
9.152673e-01 
9.273170e-01 
9.401307e-01 
9.536799e-01 
9.679363e-01 
9.828723e-01 
9.984606e-01 
1.014675e+00 
1.031488e+00 
1.048876e+00 
1.066813e+00 
1.085277e+00 
1.104243e+00 
1.422990e+00 
1.398739e+00 
1.374665e+00 
1.350819e+00 
1.327223e+00 
1.303892e+00 
1.280843e+00 
1.258091e+00 
1.235653e+00 
1.213544e+00 
1.191783e+00 
1.170388e+00 
1.149374e+00 
1.128763e+00 
1.108571e+00 
1.088819e+00 
1.069528e+00 
1.050718e+00 
1.032412e+00 
1.014633e+00 
9.974039e-01 
9.807509e-01 
9.646995e-01 
9.492766e-01 
9.345100e-01 
9.204280e-01 
9.070597e-01 
8.944346e-01 
8.825825e-01 
8.715334e-01 
8.613176e-01 
8.519653e-01 
8.435061e-01 
8.359649e-01 
8.293627e-01 
8.237211e-01 
8.190613e-01 
8.154031e-01 
8.127659e-01 
8.111769e-01 
8.108153e-01 
8.119973e-01 
8.145895e-01 
8.184369e-01 
8.234217e-01 
8.294661e-01 
8.365171e-01 
8.445344e-01 
8.534835e-01 
8.633325e-01 
8.740503e-01 
8.856062e-01 
8.979688e-01 
9.111073e-01 
9.249912e-01 
9.395909e-01 
9.548771e-01 
9.708211e-01 
9.873949e-01 
1.004571e+00 
1.022324e+00 
1.040627e+00 
1.059456e+00 
1.078787e+00 
1.402880e+00 
1.378308e+00 
1.353913e+00 
1.329743e+00 
1.305819e+00 
1.282157e+00 
1.258773e+00 
1.235683e+00 
1.212902e+00 
1.190447e+00 
1.168336e+00 
1.146586e+00 
1.125214e+00 
1.104240e+00 
1.083683e+00 
1.063562e+00 
1.043899e+00 
1.024715e+00 
1.006034e+00 
9.878791e-01 
9.702757e-01 
9.532500e-01 
9.368293e-01 
9.210417e-01 
9.059167e-01 
8.914841e-01 
8.777749e-01 
8.648203e-01 
8.526520e-01 
8.413021e-01 
8.308029e-01 
8.211867e-01 
8.124852e-01 
8.047257e-01 
7.979310e-01 
7.921249e-01 
7.873305e-01 
7.835691e-01 
7.808613e-01 
7.792365e-01 
7.789024e-01 
7.801784e-01 
7.828991e-01 
7.868976e-01 
7.920543e-01 
7.982927e-01 
8.055602e-01 
8.138164e-01 
8.230255e-01 
8.331539e-01 
8.441684e-01 
8.560364e-01 
8.687251e-01 
8.822013e-01 
8.964326e-01 
9.113876e-01 
9.270354e-01 
9.433460e-01 
9.602899e-01 
9.778386e-01 
9.959646e-01 
1.014641e+00 
1.033843e+00 
1.053546e+00 
1.383122e+00 
1.358229e+00 
1.333513e+00 
1.309019e+00 
1.284767e+00 
1.260773e+00 
1.237052e+00 
1.213620e+00 
1.190494e+00 
1.167688e+00 
1.145222e+00 
1.123111e+00 
1.101374e+00 
1.080029e+00 
1.059097e+00 
1.038598e+00 
1.018553e+00 
9.989844e-01 
9.799164e-01 
9.613739e-01 
9.433831e-01 
9.259714e-01 
9.091674e-01 
8.930009e-01 
8.775027e-01 
8.627045e-01 
8.486389e-01 
8.353393e-01 
8.228393e-01 
8.111733e-01 
8.003756e-01 
7.904811e-01 
7.815237e-01 
7.735332e-01 
7.665349e-01 
7.605547e-01 
7.556177e-01 
7.517471e-01 
7.489650e-01 
7.473022e-01 
7.469997e-01 
7.483749e-01 
7.512287e-01 
7.553835e-01 
7.607193e-01 
7.671607e-01 
7.746559e-01 
7.831636e-01 
7.926465e-01 
8.030688e-01 
8.143952e-01 
8.265908e-01 
8.396208e-01 
8.534500e-01 
8.680437e-01 
8.833686e-01 
8.993922e-01 
9.160828e-01 
9.334095e-01 
9.513425e-01 
9.698532e-01 
9.889140e-01 
1.008499e+00 
1.028581e+00 
1.363734e+00 
1.338521e+00 
1.313483e+00 
1.288664e+00 
1.264084e+00 
1.239756e+00 
1.215697e+00 
1.191921e+00 
1.168445e+00 
1.145285e+00 
1.122457e+00 
1.099979e+00 
1.077870e+00 
1.056147e+00 
1.034832e+00 
1.013944e+00 
9.935067e-01 
9.735424e-01 
9.540761e-01 
9.351337e-01 
9.167425e-01 
8.989311e-01 
8.817296e-01 
8.651691e-01 
8.492823e-01 
8.341025e-01 
8.196643e-01 
8.060030e-01 
7.931548e-01 
7.811559e-01 
7.700436e-01 
7.598551e-01 
7.506272e-01 
7.423923e-01 
7.351782e-01 
7.290132e-01 
7.239250e-01 
7.199385e-01 
7.170774e-01 
7.153745e-01 
7.151079e-01 
7.165875e-01 
7.195790e-01 
7.238961e-01 
7.294190e-01 
7.360739e-01 
7.438093e-01 
7.525825e-01 
7.623544e-01 
7.730867e-01 
7.847417e-01 
7.972817e-01 
8.106697e-01 
8.248684e-01 
8.398408e-01 
8.555515e-01 
8.719660e-01 
8.890510e-01 
9.067743e-01 
9.251046e-01 
9.440122e-01 
9.634684e-01 
9.834460e-01 
1.003919e+00 
1.344734e+00 
1.319202e+00 
1.293844e+00 
1.268699e+00 
1.243788e+00 
1.219126e+00 
1.194725e+00 
1.170603e+00 
1.146774e+00 
1.123254e+00 
1.100060e+00 
1.077209e+00 
1.054720e+00 
1.032612e+00 
1.010904e+00 
9.896190e-01 
9.687790e-01 
9.484080e-01 
9.285315e-01 
9.091766e-01 
8.903717e-01 
8.721466e-01 
8.545327e-01 
8.375628e-01 
8.212710e-01 
8.056927e-01 
7.908645e-01 
7.768240e-01 
7.636094e-01 
7.512600e-01 
7.398156e-01 
7.293165e-01 
7.198022e-01 
7.113078e-01 
7.038642e-01 
6.975027e-01 
6.922534e-01 
6.881435e-01 
6.851985e-01 
6.834531e-01 
6.832271e-01 
6.848161e-01 
6.879502e-01 
6.924361e-01 
6.981552e-01 
7.050353e-01 
7.130246e-01 
7.220789e-01 
7.321564e-01 
7.432162e-01 
7.552176e-01 
7.681202e-01 
7.818841e-01 
7.964700e-01 
8.118383e-01 
8.279514e-01 
8.447729e-01 
8.622676e-01 
8.804017e-01 
8.991428e-01 
9.184599e-01 
9.383232e-01 
9.587047e-01 
9.795774e-01 
1.326141e+00 
1.300291e+00 
1.274611e+00 
1.249142e+00 
1.223900e+00 
1.198900e+00 
1.174156e+00 
1.149684e+00 
1.125497e+00 
1.101613e+00 
1.078047e+00 
1.054818e+00 
1.031942e+00 
1.009440e+00 
9.873321e-01 
9.656402e-01 
9.443875e-01 
9.235988e-01 
9.033005e-01 
8.835204e-01 
8.642882e-01 
8.456349e-01 
8.275934e-01 
8.101978e-01 
7.934842e-01 
7.774897e-01 
7.622531e-01 
7.478145e-01 
7.342147e-01 
7.214959e-01 
7.097011e-01 
6.988732e-01 
6.890549e-01 
6.802846e-01 
6.725964e-01 
6.660253e-01 
6.606041e-01 
6.563625e-01 
6.533283e-01 
6.515377e-01 
6.513572e-01 
6.530606e-01 
6.563426e-01 
6.610047e-01 
6.669304e-01 
6.740488e-01 
6.823072e-01 
6.916594e-01 
7.020608e-01 
7.134670e-01 
7.258341e-01 
7.391187e-01 
7.532778e-01 
7.682694e-01 
7.840519e-01 
8.005851e-01 
8.178303e-01 
8.357505e-01 
8.543103e-01 
8.734760e-01 
8.932154e-01 
9.134978e-01 
9.342941e-01 
9.555768e-01 
1.307964e+00 
1.281795e+00 
1.255796e+00 
1.230001e+00 
1.204427e+00 
1.179088e+00 
1.153999e+00 
1.129173e+00 
1.104626e+00 
1.080372e+00 
1.056430e+00 
1.032815e+00 
1.009546e+00 
9.866434e-01 
9.641270e-01 
9.420193e-01 
9.203443e-01 
8.991274e-01 
8.783956e-01 
8.581780e-01 
8.385051e-01 
8.194092e-01 
8.009245e-01 
7.830868e-01 
7.659339e-01 
7.495050e-01 
7.338411e-01 
7.189848e-01 
7.049803e-01 
6.918725e-01 
6.797074e-01 
6.685314e-01 
6.583904e-01 
6.493261e-01 
6.413773e-01 
6.345823e-01 
6.289776e-01 
6.245957e-01 
6.214665e-01 
6.196282e-01 
6.194996e-01 
6.213236e-01 
6.247596e-01 
6.296068e-01 
6.357513e-01 
6.431229e-01 
6.516678e-01 
6.613369e-01 
6.720821e-01 
6.838554e-01 
6.966094e-01 
7.102969e-01 
7.248719e-01 
7.402893e-01 
7.565054e-01 
7.734772e-01 
7.911636e-01 
8.095258e-01 
8.285267e-01 
8.481313e-01 
8.683062e-01 
8.890198e-01 
9.102421e-01 
9.319447e-01 
1.290190e+00 
1.263711e+00 
1.237395e+00 
1.211277e+00 
1.185373e+00 
1.159696e+00 
1.134260e+00 
1.109080e+00 
1.084169e+00 
1.059545e+00 
1.035222e+00 
1.011218e+00 
9.875514e-01 
9.642422e-01 
9.413113e-01 
9.187811e-01 
8.966759e-01 
8.750219e-01 
8.538470e-01 
8.331808e-01 
8.130550e-01 
7.935030e-01 
7.745604e-01 
7.562646e-01 
7.386552e-01 
7.217735e-01 
7.056630e-01 
6.903692e-01 
6.759391e-01 
6.624210e-01 
6.498643e-01 
6.383192e-01 
6.278353e-01 
6.184587e-01 
6.102324e-01 
6.031991e-01 
5.973988e-01 
5.928675e-01 
5.896378e-01 
5.877495e-01 
5.876709e-01 
5.896118e-01 
5.932058e-01 
5.982475e-01 
6.046242e-01 
6.122660e-01 
6.211168e-01 
6.311240e-01 
6.422355e-01 
6.543991e-01 
6.675633e-01 
6.816773e-01 
6.966914e-01 
7.125573e-01 
7.292287e-01 
7.466597e-01 
7.648070e-01 
7.836297e-01 
8.030893e-01 
8.231494e-01 
8.437752e-01 
8.649342e-01 
8.865956e-01 
9.087303e-01 
1.272919e+00 
1.246126e+00 
1.219493e+00 
1.193052e+00 
1.166817e+00 
1.140801e+00 
1.115018e+00 
1.089480e+00 
1.064203e+00 
1.039202e+00 
1.014493e+00 
9.900936e-01 
9.660219e-01 
9.422979e-01 
9.189429e-01 
8.959797e-01 
8.734331e-01 
8.513295e-01 
8.296975e-01 
8.085675e-01 
7.879723e-01 
7.679463e-01 
7.485265e-01 
7.297520e-01 
7.116640e-01 
6.943064e-01 
6.777253e-01 
6.619690e-01 
6.470875e-01 
6.331328e-01 
6.201583e-01 
6.082185e-01 
5.973678e-01 
5.876569e-01 
5.791332e-01 
5.718439e-01 
5.658335e-01 
5.611419e-01 
5.578049e-01 
5.558641e-01 
5.558471e-01 
5.579173e-01 
5.616796e-01 
5.669282e-01 
5.735533e-01 
5.814846e-01 
5.906631e-01 
6.010319e-01 
6.125341e-01 
6.251130e-01 
6.387125e-01 
6.532776e-01 
6.687548e-01 
6.850926e-01 
7.022413e-01 
7.201523e-01 
7.387801e-01 
7.580819e-01 
7.780177e-01 
7.985493e-01 
8.196411e-01 
8.412593e-01 
8.633725e-01 
8.859508e-01 
1.256134e+00 
1.229031e+00 
1.202084e+00 
1.175320e+00 
1.148754e+00 
1.122398e+00 
1.096264e+00 
1.070367e+00 
1.044721e+00 
1.019340e+00 
9.942408e-01 
9.694406e-01 
9.449577e-01 
9.208123e-01 
8.970258e-01 
8.736214e-01 
8.506241e-01 
8.280607e-01 
8.059602e-01 
7.843537e-01 
7.632747e-01 
7.427589e-01 
7.228445e-01 
7.035722e-01 
6.849853e-01 
6.671300e-01 
6.500551e-01 
6.338118e-01 
6.184535e-01 
6.040361e-01 
5.906172e-01 
5.782562e-01 
5.670124e-01 
5.569415e-01 
5.480965e-01 
5.405298e-01 
5.342910e-01 
5.294247e-01 
5.259707e-01 
5.239723e-01 
5.240201e-01 
5.262241e-01 
5.301619e-01 
5.356291e-01 
5.425186e-01 
5.507590e-01 
5.602873e-01 
5.710412e-01 
5.829586e-01 
5.959773e-01 
6.100365e-01 
6.250765e-01 
6.410397e-01 
6.578710e-01 
6.755175e-01 
6.939277e-01 
7.130538e-01 
7.328509e-01 
7.532771e-01 
7.742932e-01 
7.958621e-01 
8.179493e-01 
8.405225e-01 
8.635515e-01 
1.239847e+00 
1.212437e+00 
1.185177e+00 
1.158093e+00 
1.131196e+00 
1.104501e+00 
1.078018e+00 
1.051761e+00 
1.025743e+00 
9.999807e-01 
9.744885e-01 
9.492840e-01 
9.243856e-01 
8.998132e-01 
8.755887e-01 
8.517352e-01 
8.282782e-01 
8.052448e-01 
7.826644e-01 
7.605687e-01 
7.389916e-01 
7.179699e-01 
6.975431e-01 
6.777535e-01 
6.586465e-01 
6.402708e-01 
6.226775e-01 
6.059211e-01 
5.900589e-01 
5.751508e-01 
5.612592e-01 
5.484485e-01 
5.367836e-01 
5.263260e-01 
5.171347e-01 
5.092683e-01 
5.027824e-01 
4.977270e-01 
4.941469e-01 
4.920871e-01 
4.922034e-01 
4.945460e-01 
4.986681e-01 
5.043682e-01 
5.115417e-01 
5.201145e-01 
5.300184e-01 
5.411850e-01 
5.535456e-01 
5.670325e-01 
5.815790e-01 
5.971207e-01 
6.135957e-01 
6.309448e-01 
6.491117e-01 
6.680424e-01 
6.876861e-01 
7.079963e-01 
7.289291e-01 
7.504439e-01 
7.725026e-01 
7.950699e-01 
8.181128e-01 
8.416006e-01 
1.224076e+00 
1.196364e+00 
1.168794e+00 
1.141391e+00 
1.114166e+00 
1.087132e+00 
1.060300e+00 
1.033684e+00 
1.007295e+00 
9.811493e-01 
9.552623e-01 
9.296508e-01 
9.043332e-01 
8.793294e-01 
8.546611e-01 
8.303516e-01 
8.064265e-01 
7.829132e-01 
7.598416e-01 
7.372436e-01 
7.151541e-01 
6.936104e-01 
6.726533e-01 
6.523266e-01 
6.326778e-01 
6.137577e-01 
5.956204e-01 
5.783236e-01 
5.619285e-01 
5.464997e-01 
5.321046e-01 
5.188131e-01 
5.066963e-01 
4.958223e-01 
4.862569e-01 
4.780660e-01 
4.713119e-01 
4.660514e-01 
4.623349e-01 
4.602100e-01 
4.603982e-01 
4.628848e-01 
4.672015e-01 
4.731514e-01 
4.806314e-01 
4.895633e-01 
4.998721e-01 
5.114820e-01 
5.243172e-01 
5.383032e-01 
5.533673e-01 
5.694397e-01 
5.864539e-01 
6.043465e-01 
6.230578e-01 
6.425308e-01 
6.627124e-01 
6.835537e-01 
7.050094e-01 
7.270374e-01 
7.495987e-01 
7.726572e-01 
7.961792e-01 
8.201339e-01 
1.208842e+00 
1.180830e+00 
1.152954e+00 
1.125236e+00 
1.097686e+00 
1.070315e+00 
1.043136e+00 
1.016160e+00 
9.894006e-01 
9.628717e-01 
9.365889e-01 
9.105688e-01 
8.848295e-01 
8.593907e-01 
8.342739e-01 
8.095024e-01 
7.851018e-01 
7.610995e-01 
7.375258e-01 
7.144131e-01 
6.917968e-01 
6.697151e-01 
6.482097e-01 
6.273259e-01 
6.071129e-01 
5.876239e-01 
5.689157e-01 
5.510496e-01 
5.340909e-01 
5.181089e-01 
5.031767e-01 
4.893704e-01 
4.767676e-01 
4.654440e-01 
4.554734e-01 
4.469298e-01 
4.398838e-01 
4.344000e-01 
4.305359e-01 
4.283416e-01 
4.286050e-01 
4.312414e-01 
4.357648e-01 
4.419842e-01 
4.497965e-01 
4.591178e-01 
4.698646e-01 
4.819523e-01 
4.952968e-01 
5.098158e-01 
5.254304e-01 
5.420647e-01 
5.596473e-01 
5.781105e-01 
5.973910e-01 
6.174289e-01 
6.381687e-01 
6.595593e-01 
6.815540e-01 
7.041094e-01 
7.271856e-01 
7.507457e-01 
7.747558e-01 
7.991847e-01 
1.194163e+00 
1.165856e+00 
1.137679e+00 
1.109648e+00 
1.081776e+00 
1.054072e+00 
1.026548e+00 
9.992155e-01 
9.720866e-01 
9.451755e-01 
9.184972e-01 
8.920679e-01 
8.659055e-01 
8.400293e-01 
8.144605e-01 
7.892222e-01 
7.643397e-01 
7.398405e-01 
7.157549e-01 
6.921157e-01 
6.689587e-01 
6.463229e-01 
6.242511e-01 
6.027898e-01 
5.819898e-01 
5.619063e-01 
5.425993e-01 
5.241333e-01 
5.065781e-01 
4.900081e-01 
4.745022e-01 
4.601433e-01 
4.470166e-01 
4.352061e-01 
4.247949e-01 
4.158667e-01 
4.085017e-01 
4.027741e-01 
3.987493e-01 
3.964812e-01 
3.968224e-01 
3.996153e-01 
4.043595e-01 
4.108712e-01 
4.190458e-01 
4.287910e-01 
4.400130e-01 
4.526168e-01 
4.665088e-01 
4.815983e-01 
4.977988e-01 
5.150285e-01 
5.332103e-01 
5.522725e-01 
5.721480e-01 
5.927739e-01 
6.140923e-01 
6.360504e-01 
6.585999e-01 
6.816963e-01 
7.052990e-01 
7.293706e-01 
7.538769e-01 
7.787865e-01 
1.180056e+00 
1.151460e+00 
1.122985e+00 
1.094648e+00 
1.066458e+00 
1.038425e+00 
1.010559e+00 
9.828724e-01 
9.553766e-01 
9.280852e-01 
9.010126e-01 
8.741747e-01 
8.475889e-01 
8.212741e-01 
7.952509e-01 
7.695421e-01 
7.441726e-01 
7.191698e-01 
6.945638e-01 
6.703876e-01 
6.466773e-01 
6.234724e-01 
6.008165e-01 
5.787574e-01 
5.573474e-01 
5.366436e-01 
5.167089e-01 
4.976114e-01 
4.794250e-01 
4.622296e-01 
4.461105e-01 
4.311577e-01 
4.174649e-01 
4.051256e-01 
3.942339e-01 
3.848850e-01 
3.771704e-01 
3.711754e-01 
3.669753e-01 
3.646281e-01 
3.650496e-01 
3.680065e-01 
3.729885e-01 
3.798194e-01 
3.883905e-01 
3.985990e-01 
4.103383e-01 
4.235012e-01 
4.379830e-01 
4.536837e-01 
4.705086e-01 
4.883691e-01 
5.071827e-01 
5.268731e-01 
5.473697e-01 
5.686067e-01 
5.905241e-01 
6.130673e-01 
6.361866e-01 
6.598369e-01 
6.839767e-01 
7.085686e-01 
7.335780e-01 
7.589738e-01 
1.166506e+00 
1.137630e+00 
1.108864e+00 
1.080225e+00 
1.051723e+00 
1.023366e+00 
9.951640e-01 
9.671283e-01 
9.392705e-01 
9.116031e-01 
8.841402e-01 
8.568971e-01 
8.298905e-01 
8.031388e-01 
7.766621e-01 
7.504828e-01 
7.246251e-01 
6.991159e-01 
6.739849e-01 
6.492651e-01 
6.249923e-01 
6.012066e-01 
5.779521e-01 
5.552774e-01 
5.332361e-01 
5.118874e-01 
4.912967e-01 
4.715356e-01 
4.526824e-01 
4.348224e-01 
4.180477e-01 
4.024565e-01 
3.881519e-01 
3.752386e-01 
3.638232e-01 
3.540142e-01 
3.459165e-01 
3.396280e-01 
3.352362e-01 
3.328042e-01 
3.332913e-01 
3.364144e-01 
3.416541e-01 
3.488360e-01 
3.578437e-01 
3.685606e-01 
3.808648e-01 
3.946350e-01 
4.097540e-01 
4.261112e-01 
4.436031e-01 
4.621340e-01 
4.816155e-01 
5.019667e-01 
5.231133e-01 
5.449868e-01 
5.675251e-01 
5.906723e-01 
6.143777e-01 
6.385955e-01 
6.632839e-01 
6.884054e-01 
7.139255e-01 
7.398134e-01 
1.153603e+00 
1.124450e+00 
1.095400e+00 
1.066466e+00 
1.037657e+00 
1.008982e+00 
9.804501e-01 
9.520708e-01 
9.238556e-01 
8.958164e-01 
8.679667e-01 
8.403210e-01 
8.128953e-01 
7.857074e-01 
7.587767e-01 
7.321247e-01 
7.057752e-01 
6.797544e-01 
6.540914e-01 
6.288184e-01 
6.039715e-01 
5.795903e-01 
5.557194e-01 
5.324078e-01 
5.097104e-01 
4.876881e-01 
4.664087e-01 
4.459470e-01 
4.263857e-01 
4.078156e-01 
3.903361e-01 
3.740543e-01 
3.590842e-01 
3.455432e-01 
3.335524e-01 
3.232357e-01 
3.147143e-01 
3.081013e-01 
3.034990e-01 
3.009769e-01 
3.015435e-01 
3.048502e-01 
3.103730e-01 
3.179437e-01 
3.274355e-01 
3.387134e-01 
3.516373e-01 
3.660692e-01 
3.818777e-01 
3.989404e-01 
4.171442e-01 
4.363858e-01 
4.565709e-01 
4.776141e-01 
4.994376e-01 
5.219703e-01 
5.451487e-01 
5.689161e-01 
5.932210e-01 
6.180173e-01 
6.432633e-01 
6.689214e-01 
6.949577e-01 
7.213416e-01 
1.141338e+00 
1.111917e+00 
1.082591e+00 
1.053371e+00 
1.024264e+00 
9.952792e-01 
9.664242e-01 
9.377087e-01 
9.091432e-01 
8.807389e-01 
8.525085e-01 
8.244656e-01 
7.966256e-01 
7.690051e-01 
7.416229e-01 
7.144994e-01 
6.876576e-01 
6.611229e-01 
6.349236e-01 
6.090912e-01 
5.836612e-01 
5.586730e-01 
5.341707e-01 
5.102039e-01 
4.868281e-01 
4.641055e-01 
4.421060e-01 
4.209073e-01 
4.005964e-01 
3.812696e-01 
3.630334e-01 
3.460048e-01 
3.303096e-01 
3.160801e-01 
3.034541e-01 
2.925745e-01 
2.835814e-01 
2.766061e-01 
2.717692e-01 
2.691491e-01 
2.697938e-01 
2.732962e-01 
2.791298e-01 
2.871329e-01 
2.971622e-01 
3.090597e-01 
3.226631e-01 
3.378150e-01 
3.543682e-01 
3.721872e-01 
3.911487e-01 
4.111414e-01 
4.320650e-01 
4.538297e-01 
4.763546e-01 
4.995666e-01 
5.234012e-01 
5.478009e-01 
5.727142e-01 
5.980951e-01 
6.239020e-01 
6.500980e-01 
6.766497e-01 
7.035275e-01 
1.129725e+00 
1.100046e+00 
1.070453e+00 
1.040955e+00 
1.011560e+00 
9.822738e-01 
9.531051e-01 
9.240624e-01 
8.951554e-01 
8.663945e-01 
8.377914e-01 
8.093590e-01 
7.811115e-01 
7.530647e-01 
7.252360e-01 
6.976452e-01 
6.703138e-01 
6.432662e-01 
6.165298e-01 
5.901350e-01 
5.641162e-01 
5.385122e-01 
5.133666e-01 
4.887287e-01 
4.646541e-01 
4.412060e-01 
4.184555e-01 
3.964831e-01 
3.753794e-01 
3.552464e-01 
3.361981e-01 
3.183615e-01 
3.018758e-01 
2.868898e-01 
2.735614e-01 
2.620556e-01 
2.525355e-01 
2.451545e-01 
2.400560e-01 
2.373296e-01 
2.380505e-01 
2.417635e-01 
2.479423e-01 
2.564307e-01 
2.670618e-01 
2.796477e-01 
2.939993e-01 
3.099373e-01 
3.272966e-01 
3.459277e-01 
3.656965e-01 
3.864834e-01 
4.081823e-01 
4.306993e-01 
4.539507e-01 
4.778621e-01 
5.023684e-01 
5.274121e-01 
5.529420e-01 
5.789125e-01 
6.052829e-01 
6.320171e-01 
6.590829e-01 
6.864513e-01 
1.118784e+00 
1.088857e+00 
1.059008e+00 
1.029243e+00 
9.995692e-01 
9.699929e-01 
9.405211e-01 
9.111618e-01 
8.819238e-01 
8.528166e-01 
8.238509e-01 
7.950386e-01 
7.663927e-01 
7.379280e-01 
7.096607e-01 
6.816091e-01 
6.537935e-01 
6.262371e-01 
5.989657e-01 
5.720085e-01 
5.453985e-01 
5.191732e-01 
4.933752e-01 
4.680530e-01 
4.432618e-01 
4.190647e-01 
3.955337e-01 
3.727512e-01 
3.508110e-01 
3.298202e-01 
3.099004e-01 
2.911892e-01 
2.738401e-01 
2.580205e-01 
2.439114e-01 
2.317049e-01 
2.215921e-01 
2.137531e-01 
2.083607e-01 
2.055193e-01 
2.063130e-01 
2.102549e-01 
2.168206e-01 
2.258591e-01 
2.371683e-01 
2.505225e-01 
2.657007e-01 
2.824983e-01 
3.007307e-01 
3.202334e-01 
3.408610e-01 
3.624862e-01 
3.849971e-01 
4.082964e-01 
4.322982e-01 
4.569276e-01 
4.821195e-01 
5.078169e-01 
5.339693e-01 
5.605323e-01 
5.874665e-01 
6.147371e-01 
6.423131e-01 
6.701670e-01 
1.108538e+00 
1.078374e+00 
1.048278e+00 
1.018258e+00 
9.883175e-01 
9.584627e-01 
9.286999e-01 
8.990361e-01 
8.694793e-01 
8.400381e-01 
8.107220e-01 
7.815417e-01 
7.525092e-01 
7.236378e-01 
6.949423e-01 
6.664397e-01 
6.381488e-01 
6.100910e-01 
5.822904e-01 
5.547746e-01 
5.275747e-01 
5.007266e-01 
4.742711e-01 
4.482551e-01 
4.227329e-01 
3.977665e-01 
3.734281e-01 
3.498007e-01 
3.269807e-01 
3.050794e-01 
2.842256e-01 
2.645676e-01 
2.462738e-01 
2.295323e-01 
2.145510e-01 
2.015548e-01 
1.907704e-01 
1.824102e-01 
1.766849e-01 
1.737183e-01 
1.745805e-01 
1.787737e-01 
1.857773e-01 
1.954454e-01 
2.075246e-01 
2.217404e-01 
2.378342e-01 
2.555730e-01 
2.747507e-01 
2.951875e-01 
3.167268e-01 
3.392338e-01 
3.625923e-01 
3.867021e-01 
4.114760e-01 
4.368396e-01 
4.627282e-01 
4.890859e-01 
5.158639e-01 
5.430193e-01 
5.705145e-01 
5.983164e-01 
6.263958e-01 
6.547268e-01 
1.099005e+00 
1.068616e+00 
1.038287e+00 
1.008024e+00 
9.778293e-01 
9.477093e-01 
9.176691e-01 
8.877149e-01 
8.578534e-01 
8.280924e-01 
7.984402e-01 
7.689064e-01 
7.395016e-01 
7.102376e-01 
6.811279e-01 