# vtk DataFile Version 2.0 
Quadtree Mesh 
ASCII 
DATASET UNSTRUCTURED_GRID 
POINTS 4096 double 
-1.000000e+00 -1.000000e+00 0.000000e+00
-9.682540e-01 -1.000000e+00 0.000000e+00
-9.365079e-01 -1.000000e+00 0.000000e+00
-9.047619e-01 -1.000000e+00 0.000000e+00
-8.730159e-01 -1.000000e+00 0.000000e+00
-8.412698e-01 -1.000000e+00 0.000000e+00
-8.095238e-01 -1.000000e+00 0.000000e+00
-7.777778e-01 -1.000000e+00 0.000000e+00
-7.460317e-01 -1.000000e+00 0.000000e+00
-7.142857e-01 -1.000000e+00 0.000000e+00
-6.825397e-01 -1.000000e+00 0.000000e+00
-6.507937e-01 -1.000000e+00 0.000000e+00
-6.190476e-01 -1.000000e+00 0.000000e+00
-5.873016e-01 -1.000000e+00 0.000000e+00
-5.555556e-01 -1.000000e+00 0.000000e+00
-5.238095e-01 -1.000000e+00 0.000000e+00
-4.920635e-01 -1.000000e+00 0.000000e+00
-4.603175e-01 -1.000000e+00 0.000000e+00
-4.285714e-01 -1.000000e+00 0.000000e+00
-3.968254e-01 -1.000000e+00 0.000000e+00
-3.650794e-01 -1.000000e+00 0.000000e+00
-3.333333e-01 -1.000000e+00 0.000000e+00
-3.015873e-01 -1.000000e+00 0.000000e+00
-2.698413e-01 -1.000000e+00 0.000000e+00
-2.380952e-01 -1.000000e+00 0.000000e+00
-2.063492e-01 -1.000000e+00 0.000000e+00
-1.746032e-01 -1.000000e+00 0.000000e+00
-1.428571e-01 -1.000000e+00 0.000000e+00
-1.111111e-01 -1.000000e+00 0.000000e+00
-7.936508e-02 -1.000000e+00 0.000000e+00
-4.761905e-02 -1.000000e+00 0.000000e+00
-1.587302e-02 -1.000000e+00 0.000000e+00
1.587302e-02 -1.000000e+00 0.000000e+00
4.761905e-02 -1.000000e+00 0.000000e+00
7.936508e-02 -1.000000e+00 0.000000e+00
1.111111e-01 -1.000000e+00 0.000000e+00
1.428571e-01 -1.000000e+00 0.000000e+00
1.746032e-01 -1.000000e+00 0.000000e+00
2.063492e-01 -1.000000e+00 0.000000e+00
2.380952e-01 -1.000000e+00 0.000000e+00
2.698413e-01 -1.000000e+00 0.000000e+00
3.015873e-01 -1.000000e+00 0.000000e+00
3.333333e-01 -1.000000e+00 0.000000e+00
3.650794e-01 -1.000000e+00 0.000000e+00
3.968254e-01 -1.000000e+00 0.000000e+00
4.285714e-01 -1.000000e+00 0.000000e+00
4.603175e-01 -1.000000e+00 0.000000e+00
4.920635e-01 -1.000000e+00 0.000000e+00
5.238095e-01 -1.000000e+00 0.000000e+00
5.555556e-01 -1.000000e+00 0.000000e+00
5.873016e-01 -1.000000e+00 0.000000e+00
6.190476e-01 -1.000000e+00 0.000000e+00
6.507937e-01 -1.000000e+00 0.000000e+00
6.825397e-01 -1.000000e+00 0.000000e+00
7.142857e-01 -1.000000e+00 0.000000e+00
7.460317e-01 -1.000000e+00 0.000000e+00
7.777778e-01 -1.000000e+00 0.000000e+00
8.095238e-01 -1.000000e+00 0.000000e+00
8.412698e-01 -1.000000e+00 0.000000e+00
8.730159e-01 -1.000000e+00 0.000000e+00
9.047619e-01 -1.000000e+00 0.000000e+00
9.365079e-01 -1.000000e+00 0.000000e+00
9.682540e-01 -1.000000e+00 0.000000e+00
1.000000e+00 -1.000000e+00 0.000000e+00
-1.000000e+00 -9.682540e-01 0.000000e+00
-9.682540e-01 -9.682540e-01 0.000000e+00
-9.365079e-01 -9.682540e-01 0.000000e+00
-9.047619e-01 -9.682540e-01 0.000000e+00
-8.730159e-01 -9.682540e-01 0.000000e+00
-8.412698e-01 -9.682540e-01 0.000000e+00
-8.095238e-01 -9.682540e-01 0.000000e+00
-7.777778e-01 -9.682540e-01 0.000000e+00
-7.460317e-01 -9.682540e-01 0.000000e+00
-7.142857e-01 -9.682540e-01 0.000000e+00
-6.825397e-01 -9.682540e-01 0.000000e+00
-6.507937e-01 -9.682540e-01 0.000000e+00
-6.190476e-01 -9.682540e-01 0.000000e+00
-5.873016e-01 -9.682540e-01 0.000000e+00
-5.555556e-01 -9.682540e-01 0.000000e+00
-5.238095e-01 -9.682540e-01 0.000000e+00
-4.920635e-01 -9.682540e-01 0.000000e+00
-4.603175e-01 -9.682540e-01 0.000000e+00
-4.285714e-01 -9.682540e-01 0.000000e+00
-3.968254e-01 -9.682540e-01 0.000000e+00
-3.650794e-01 -9.682540e-01 0.000000e+00
-3.333333e-01 -9.682540e-01 0.000000e+00
-3.015873e-01 -9.682540e-01 0.000000e+00
-2.698413e-01 -9.682540e-01 0.000000e+00
-2.380952e-01 -9.682540e-01 0.000000e+00
-2.063492e-01 -9.682540e-01 0.000000e+00
-1.746032e-01 -9.682540e-01 0.000000e+00
-1.428571e-01 -9.682540e-01 0.000000e+00
-1.111111e-01 -9.682540e-01 0.000000e+00
-7.936508e-02 -9.682540e-01 0.000000e+00
-4.761905e-02 -9.682540e-01 0.000000e+00
-1.587302e-02 -9.682540e-01 0.000000e+00
1.587302e-02 -9.682540e-01 0.000000e+00
4.761905e-02 -9.682540e-01 0.000000e+00
7.936508e-02 -9.682540e-01 0.000000e+00
1.111111e-01 -9.682540e-01 0.000000e+00
1.428571e-01 -9.682540e-01 0.000000e+00
1.746032e-01 -9.682540e-01 0.000000e+00
2.063492e-01 -9.682540e-01 0.000000e+00
2.380952e-01 -9.682540e-01 0.000000e+00
2.698413e-01 -9.682540e-01 0.000000e+00
3.015873e-01 -9.682540e-01 0.000000e+00
3.333333e-01 -9.682540e-01 0.000000e+00
3.650794e-01 -9.682540e-01 0.000000e+00
3.968254e-01 -9.682540e-01 0.000000e+00
4.285714e-01 -9.682540e-01 0.000000e+00
4.603175e-01 -9.682540e-01 0.000000e+00
4.920635e-01 -9.682540e-01 0.000000e+00
5.238095e-01 -9.682540e-01 0.000000e+00
5.555556e-01 -9.682540e-01 0.000000e+00
5.873016e-01 -9.682540e-01 0.000000e+00
6.190476e-01 -9.682540e-01 0.000000e+00
6.507937e-01 -9.682540e-01 0.000000e+00
6.825397e-01 -9.682540e-01 0.000000e+00
7.142857e-01 -9.682540e-01 0.000000e+00
7.460317e-01 -9.682540e-01 0.000000e+00
7.777778e-01 -9.682540e-01 0.000000e+00
8.095238e-01 -9.682540e-01 0.000000e+00
8.412698e-01 -9.682540e-01 0.000000e+00
8.730159e-01 -9.682540e-01 0.000000e+00
9.047619e-01 -9.682540e-01 0.000000e+00
9.365079e-01 -9.682540e-01 0.000000e+00
9.682540e-01 -9.682540e-01 0.000000e+00
1.000000e+00 -9.682540e-01 0.000000e+00
-1.000000e+00 -9.365079e-01 0.000000e+00
-9.682540e-01 -9.365079e-01 0.000000e+00
-9.365079e-01 -9.365079e-01 0.000000e+00
-9.047619e-01 -9.365079e-01 0.000000e+00
-8.730159e-01 -9.365079e-01 0.000000e+00
-8.412698e-01 -9.365079e-01 0.000000e+00
-8.095238e-01 -9.365079e-01 0.000000e+00
-7.777778e-01 -9.365079e-01 0.000000e+00
-7.460317e-01 -9.365079e-01 0.000000e+00
-7.142857e-01 -9.365079e-01 0.000000e+00
-6.825397e-01 -9.365079e-01 0.000000e+00
-6.507937e-01 -9.365079e-01 0.000000e+00
-6.190476e-01 -9.365079e-01 0.000000e+00
-5.873016e-01 -9.365079e-01 0.000000e+00
-5.555556e-01 -9.365079e-01 0.000000e+00
-5.238095e-01 -9.365079e-01 0.000000e+00
-4.920635e-01 -9.365079e-01 0.000000e+00
-4.603175e-01 -9.365079e-01 0.000000e+00
-4.285714e-01 -9.365079e-01 0.000000e+00
-3.968254e-01 -9.365079e-01 0.000000e+00
-3.650794e-01 -9.365079e-01 0.000000e+00
-3.333333e-01 -9.365079e-01 0.000000e+00
-3.015873e-01 -9.365079e-01 0.000000e+00
-2.698413e-01 -9.365079e-01 0.000000e+00
-2.380952e-01 -9.365079e-01 0.000000e+00
-2.063492e-01 -9.365079e-01 0.000000e+00
-1.746032e-01 -9.365079e-01 0.000000e+00
-1.428571e-01 -9.365079e-01 0.000000e+00
-1.111111e-01 -9.365079e-01 0.000000e+00
-7.936508e-02 -9.365079e-01 0.000000e+00
-4.761905e-02 -9.365079e-01 0.000000e+00
-1.587302e-02 -9.365079e-01 0.000000e+00
1.587302e-02 -9.365079e-01 0.000000e+00
4.761905e-02 -9.365079e-01 0.000000e+00
7.936508e-02 -9.365079e-01 0.000000e+00
1.111111e-01 -9.365079e-01 0.000000e+00
1.428571e-01 -9.365079e-01 0.000000e+00
1.746032e-01 -9.365079e-01 0.000000e+00
2.063492e-01 -9.365079e-01 0.000000e+00
2.380952e-01 -9.365079e-01 0.000000e+00
2.698413e-01 -9.365079e-01 0.000000e+00
3.015873e-01 -9.365079e-01 0.000000e+00
3.333333e-01 -9.365079e-01 0.000000e+00
3.650794e-01 -9.365079e-01 0.000000e+00
3.968254e-01 -9.365079e-01 0.000000e+00
4.285714e-01 -9.365079e-01 0.000000e+00
4.603175e-01 -9.365079e-01 0.000000e+00
4.920635e-01 -9.365079e-01 0.000000e+00
5.238095e-01 -9.365079e-01 0.000000e+00
5.555556e-01 -9.365079e-01 0.000000e+00
5.873016e-01 -9.365079e-01 0.000000e+00
6.190476e-01 -9.365079e-01 0.000000e+00
6.507937e-01 -9.365079e-01 0.000000e+00
6.825397e-01 -9.365079e-01 0.000000e+00
7.142857e-01 -9.365079e-01 0.000000e+00
7.460317e-01 -9.365079e-01 0.000000e+00
7.777778e-01 -9.365079e-01 0.000000e+00
8.095238e-01 -9.365079e-01 0.000000e+00
8.412698e-01 -9.365079e-01 0.000000e+00
8.730159e-01 -9.365079e-01 0.000000e+00
9.047619e-01 -9.365079e-01 0.000000e+00
9.365079e-01 -9.365079e-01 0.000000e+00
9.682540e-01 -9.365079e-01 0.000000e+00
1.000000e+00 -9.365079e-01 0.000000e+00
-1.000000e+00 -9.047619e-01 0.000000e+00
-9.682540e-01 -9.047619e-01 0.000000e+00
-9.365079e-01 -9.047619e-01 0.000000e+00
-9.047619e-01 -9.047619e-01 0.000000e+00
-8.730159e-01 -9.047619e-01 0.000000e+00
-8.412698e-01 -9.047619e-01 0.000000e+00
-8.095238e-01 -9.047619e-01 0.000000e+00
-7.777778e-01 -9.047619e-01 0.000000e+00
-7.460317e-01 -9.047619e-01 0.000000e+00
-7.142857e-01 -9.047619e-01 0.000000e+00
-6.825397e-01 -9.047619e-01 0.000000e+00
-6.507937e-01 -9.047619e-01 0.000000e+00
-6.190476e-01 -9.047619e-01 0.000000e+00
-5.873016e-01 -9.047619e-01 0.000000e+00
-5.555556e-01 -9.047619e-01 0.000000e+00
-5.238095e-01 -9.047619e-01 0.000000e+00
-4.920635e-01 -9.047619e-01 0.000000e+00
-4.603175e-01 -9.047619e-01 0.000000e+00
-4.285714e-01 -9.047619e-01 0.000000e+00
-3.968254e-01 -9.047619e-01 0.000000e+00
-3.650794e-01 -9.047619e-01 0.000000e+00
-3.333333e-01 -9.047619e-01 0.000000e+00
-3.015873e-01 -9.047619e-01 0.000000e+00
-2.698413e-01 -9.047619e-01 0.000000e+00
-2.380952e-01 -9.047619e-01 0.000000e+00
-2.063492e-01 -9.047619e-01 0.000000e+00
-1.746032e-01 -9.047619e-01 0.000000e+00
-1.428571e-01 -9.047619e-01 0.000000e+00
-1.111111e-01 -9.047619e-01 0.000000e+00
-7.936508e-02 -9.047619e-01 0.000000e+00
-4.761905e-02 -9.047619e-01 0.000000e+00
-1.587302e-02 -9.047619e-01 0.000000e+00
1.587302e-02 -9.047619e-01 0.000000e+00
4.761905e-02 -9.047619e-01 0.000000e+00
7.936508e-02 -9.047619e-01 0.000000e+00
1.111111e-01 -9.047619e-01 0.000000e+00
1.428571e-01 -9.047619e-01 0.000000e+00
1.746032e-01 -9.047619e-01 0.000000e+00
2.063492e-01 -9.047619e-01 0.000000e+00
2.380952e-01 -9.047619e-01 0.000000e+00
2.698413e-01 -9.047619e-01 0.000000e+00
3.015873e-01 -9.047619e-01 0.000000e+00
3.333333e-01 -9.047619e-01 0.000000e+00
3.650794e-01 -9.047619e-01 0.000000e+00
3.968254e-01 -9.047619e-01 0.000000e+00
4.285714e-01 -9.047619e-01 0.000000e+00
4.603175e-01 -9.047619e-01 0.000000e+00
4.920635e-01 -9.047619e-01 0.000000e+00
5.238095e-01 -9.047619e-01 0.000000e+00
5.555556e-01 -9.047619e-01 0.000000e+00
5.873016e-01 -9.047619e-01 0.000000e+00
6.190476e-01 -9.047619e-01 0.000000e+00
[...]
POINT_DATA 4096 
SCALARS concentration double 1 
LOOKUP_TABLE default 
1.015582e+00 
9.938467e-01 
9.725282e-01 
9.516811e-01 
9.313228e-01 
9.114799e-01 
8.921813e-01 
8.734573e-01 
8.553399e-01 
8.378625e-01 
8.210601e-01 
8.049688e-01 
7.896270e-01 
7.750744e-01 
7.613524e-01 
7.485030e-01 
7.365686e-01 
7.255921e-01 
7.156159e-01 
7.066814e-01 
6.988283e-01 
6.920930e-01 
6.865074e-01 
6.820960e-01 
6.788664e-01 
6.767754e-01 
6.765147e-01 
6.783258e-01 
6.816344e-01 
6.862806e-01 
6.921745e-01 
6.992529e-01 
7.074614e-01 
7.167500e-01 
7.270735e-01 
7.383879e-01 
7.506497e-01 
7.638143e-01 
7.778387e-01 
7.926816e-01 
8.083031e-01 
8.246645e-01 
8.417283e-01 
8.594585e-01 
8.778206e-01 
8.967816e-01 
9.163101e-01 
9.363762e-01 
9.569515e-01 
9.780090e-01 
9.995232e-01 
1.021470e+00 
1.043827e+00 
1.066572e+00 
1.089685e+00 
1.113147e+00 
1.136940e+00 
1.161047e+00 
1.185451e+00 
1.210138e+00 
1.235094e+00 
1.260305e+00 
1.285758e+00 
1.311441e+00 
9.925111e-01 
9.703616e-01 
9.486245e-01 
9.273525e-01 
9.065640e-01 
8.862866e-01 
8.665500e-01 
8.473859e-01 
8.288274e-01 
8.109096e-01 
7.936691e-01 
7.771441e-01 
7.613748e-01 
7.464034e-01 
7.322740e-01 
7.190318e-01 
7.067227e-01 
6.953930e-01 
6.850889e-01 
6.758559e-01 
6.677374e-01 
6.607739e-01 
6.550007e-01 
6.504454e-01 
6.471181e-01 
6.449805e-01 
6.447849e-01 
6.467059e-01 
6.501606e-01 
6.549896e-01 
6.611026e-01 
6.684346e-01 
6.769283e-01 
6.865307e-01 
6.971935e-01 
7.088696e-01 
7.215121e-01 
7.350741e-01 
7.495086e-01 
7.647717e-01 
7.808207e-01 
7.976147e-01 
8.151142e-01 
8.332813e-01 
8.520800e-01 
8.714758e-01 
8.914362e-01 
9.119301e-01 
9.329283e-01 
9.544032e-01 
9.763286e-01 
9.986799e-01 
1.021434e+00 
1.044569e+00 
1.068064e+00 
1.091901e+00 
1.116060e+00 
1.140526e+00 
1.165281e+00 
1.190310e+00 
1.215600e+00 
1.241137e+00 
1.266909e+00 
1.292904e+00 
9.698524e-01 
9.472793e-01 
9.251125e-01 
9.034035e-01 
8.821718e-01 
8.614458e-01 
8.412560e-01 
8.216353e-01 
8.026183e-01 
7.842414e-01 
7.665432e-01 
7.495641e-01 
7.333463e-01 
7.179344e-01 
7.033753e-01 
6.897178e-01 
6.770113e-01 
6.653060e-01 
6.546524e-01 
6.451003e-01 
6.366978e-01 
6.294896e-01 
6.235153e-01 
6.188059e-01 
6.153742e-01 
6.131868e-01 
6.130589e-01 
6.150935e-01 
6.187017e-01 
6.237245e-01 
6.300704e-01 
6.376722e-01 
6.464696e-01 
6.564063e-01 
6.674302e-01 
6.794903e-01 
6.925360e-01 
7.065175e-01 
7.213840e-01 
7.370885e-01 
7.535856e-01 
7.708317e-01 
7.887854e-01 
8.074068e-01 
8.266582e-01 
8.465039e-01 
8.669100e-01 
8.878445e-01 
9.092774e-01 
9.311802e-01 
9.535263e-01 
9.762908e-01 
9.994499e-01 
1.022982e+00 
1.046866e+00 
1.071082e+00 
1.095612e+00 
1.120440e+00 
1.145549e+00 
1.170924e+00 
1.196551e+00 
1.222416e+00 
1.248508e+00 
1.274815e+00 
9.476220e-01 
9.246169e-01 
9.020107e-01 
8.798541e-01 
8.581672e-01 
8.369792e-01 
8.163218e-01 
7.962287e-01 
7.767358e-01 
7.578812e-01 
7.397053e-01 
7.222505e-01 
7.055618e-01 
6.896862e-01 
6.746737e-01 
6.605764e-01 
6.474479e-01 
6.353427e-01 
6.243159e-01 
6.144223e-01 
6.057150e-01 
5.982439e-01 
5.920534e-01 
5.871785e-01 
5.836351e-01 
5.813942e-01 
5.813365e-01 
5.834891e-01 
5.872593e-01 
5.924879e-01 
5.990821e-01 
6.069719e-01 
6.160934e-01 
6.263861e-01 
6.377938e-01 
6.502610e-01 
6.637333e-01 
6.781571e-01 
6.934781e-01 
7.096456e-01 
7.266114e-01 
7.443293e-01 
7.627555e-01 
7.818484e-01 
8.015685e-01 
8.218786e-01 
8.427438e-01 
8.641311e-01 
8.860095e-01 
9.083501e-01 
9.311258e-01 
9.543111e-01 
9.778821e-01 
1.001817e+00 
1.026094e+00 
1.050694e+00 
1.075600e+00 
1.100793e+00 
1.126258e+00 
1.151980e+00 
1.177945e+00 
1.204140e+00 
1.230553e+00 
1.257172e+00 
9.258467e-01 
9.024013e-01 
8.793463e-01 
8.567314e-01 
8.345775e-01 
8.129144e-01 
7.917747e-01 
7.711930e-01 
7.512066e-01 
7.318551e-01 
7.131806e-01 
6.952278e-01 
6.780444e-01 
6.616804e-01 
6.461888e-01 
6.316256e-01 
6.180486e-01 
6.055170e-01 
5.940909e-01 
5.838308e-01 
5.747958e-01 
5.670416e-01 
5.606179e-01 
5.555646e-01 
5.519014e-01 
5.496030e-01 
5.496177e-01 
5.518933e-01 
5.558349e-01 
5.612832e-01 
5.681431e-01 
5.763412e-01 
5.858091e-01 
5.964818e-01 
6.082980e-01 
6.211977e-01 
6.351217e-01 
6.500122e-01 
6.658114e-01 
6.824648e-01 
6.999209e-01 
7.181309e-01 
7.370487e-01 
7.566305e-01 
7.768354e-01 
7.976247e-01 
8.189622e-01 
8.408142e-01 
8.631490e-01 
8.859369e-01 
9.091504e-01 
9.327637e-01 
9.567529e-01 
9.810954e-01 
1.005770e+00 
1.030759e+00 
1.056042e+00 
1.081602e+00 
1.107425e+00 
1.133496e+00 
1.159800e+00 
1.186324e+00 
1.213057e+00 
1.239988e+00 
9.045543e-01 
8.806609e-01 
8.571482e-01 
8.340647e-01 
8.114322e-01 
7.892810e-01 
7.676443e-01 
7.465579e-01 
7.260600e-01 
7.061918e-01 
6.869972e-01 
6.685233e-01 
6.508202e-01 
6.339412e-01 
6.179431e-01 
6.028858e-01 
5.888316e-01 
5.758445e-01 
5.639906e-01 
5.533367e-01 
5.439484e-01 
5.358881e-01 
5.292122e-01 
5.239662e-01 
5.201740e-01 
5.178138e-01 
5.179023e-01 
5.203067e-01 
5.244306e-01 
5.301141e-01 
5.372592e-01 
5.457881e-01 
5.556273e-01 
5.667063e-01 
5.789584e-01 
5.923179e-01 
6.067207e-01 
6.221042e-01 
6.384070e-01 
6.555704e-01 
6.735394e-01 
6.922626e-01 
7.116914e-01 
7.317801e-01 
7.524861e-01 
7.737693e-01 
7.955925e-01 
8.179210e-01 
8.407225e-01 
8.639668e-01 
8.876260e-01 
9.116742e-01 
9.360872e-01 
9.608425e-01 
9.859193e-01 
1.011298e+00 
1.036961e+00 
1.062891e+00 
1.089073e+00 
1.115492e+00 
1.142134e+00 
1.168988e+00 
1.196040e+00 
1.223281e+00 
8.837743e-01 
8.594260e-01 
8.354476e-01 
8.118857e-01 
7.887634e-01 
7.661114e-01 
7.439633e-01 
7.223558e-01 
7.013282e-01 
6.809231e-01 
6.611864e-01 
6.421673e-01 
6.239186e-01 
6.064970e-01 
5.899633e-01 
5.743817e-01 
5.598190e-01 
5.463450e-01 
5.340319e-01 
5.229536e-01 
5.131834e-01 
5.047915e-01 
4.978420e-01 
4.923869e-01 
4.884550e-01 
4.860282e-01 
4.861914e-01 
4.887308e-01 
4.930493e-01 
4.989854e-01 
5.064375e-01 
5.153223e-01 
5.255603e-01 
5.370747e-01 
5.497924e-01 
5.636416e-01 
5.785524e-01 
5.944572e-01 
6.112904e-01 
6.289890e-01 
6.474946e-01 
6.667528e-01 
6.867125e-01 
7.073262e-01 
7.285496e-01 
7.503414e-01 
7.726632e-01 
7.954797e-01 
8.187579e-01 
8.424672e-01 
8.665796e-01 
8.910688e-01 
9.159107e-01 
9.410829e-01 
9.665646e-01 
9.923366e-01 
1.018381e+00 
1.044682e+00 
1.071223e+00 
1.097990e+00 
1.124970e+00 
1.152152e+00 
1.179522e+00 
1.207071e+00 
8.635394e-01 
8.387298e-01 
8.142788e-01 
7.902298e-01 
7.666074e-01 
7.434423e-01 
7.207688e-01 
6.986241e-01 
6.770487e-01 
6.560864e-01 
6.357849e-01 
6.161958e-01 
5.973747e-01 
5.793820e-01 
5.622821e-01 
5.461435e-01 
5.310386e-01 
5.170430e-01 
5.042359e-01 
4.926992e-01 
4.825149e-01 
4.737625e-01 
4.665146e-01 
4.608316e-01 
4.567480e-01 
4.542487e-01 
4.544871e-01 
4.571686e-01 
4.616951e-01 
4.679033e-01 
4.756865e-01 
4.849549e-01 
4.956221e-01 
5.076039e-01 
5.208198e-01 
5.351910e-01 
5.506411e-01 
5.670971e-01 
5.844889e-01 
6.027489e-01 
6.218152e-01 
6.416304e-01 
6.621412e-01 
6.832979e-01 
7.050547e-01 
7.273691e-01 
7.502020e-01 
7.735172e-01 
7.972812e-01 
8.214634e-01 
8.460353e-01 
8.709708e-01 
8.962458e-01 
9.218380e-01 
9.477270e-01 
9.738937e-01 
1.000321e+00 
1.026991e+00 
1.053891e+00 
1.081006e+00 
1.108323e+00 
1.135830e+00 
1.163517e+00 
1.191372e+00 
8.438646e-01 
8.185916e-01 
7.936615e-01 
7.691188e-01 
7.449879e-01 
7.212998e-01 
6.980889e-01 
6.753930e-01 
6.532534e-01 
6.317152e-01 
6.108277e-01 
5.906448e-01 
5.712251e-01 
5.526320e-01 
5.349340e-01 
5.182044e-01 
5.025213e-01 
4.879671e-01 
4.746285e-01 
4.625961e-01 
4.519622e-01 
4.428166e-01 
4.352426e-01 
4.293104e-01 
4.250615e-01 
4.224793e-01 
4.227781e-01 
4.256023e-01 
4.303503e-01 
4.368520e-01 
4.449938e-01 
4.546774e-01 
4.658080e-01 
4.782929e-01 
4.920428e-01 
5.069711e-01 
5.229947e-01 
5.400342e-01 
5.580144e-01 
5.768633e-01 
5.965153e-01 
6.169101e-01 
6.379920e-01 
6.597096e-01 
6.820155e-01 
7.048663e-01 
7.282219e-01 
7.520456e-01 
7.763038e-01 
8.009655e-01 
8.260023e-01 
8.513882e-01 
8.770994e-01 
9.031137e-01 
9.294110e-01 
9.559726e-01 
9.827815e-01 
1.009822e+00 
1.037079e+00 
1.064539e+00 
1.092190e+00 
1.120020e+00 
1.148019e+00 
1.176177e+00 
8.248181e-01 
7.990759e-01 
7.736611e-01 
7.486165e-01 
7.239671e-01 
6.997439e-01 
6.759813e-01 
6.527175e-01 
6.299944e-01 
6.078580e-01 
5.863594e-01 
5.655544e-01 
5.455042e-01 
5.262758e-01 
5.079418e-01 
4.905809e-01 
4.742773e-01 
4.591209e-01 
4.452070e-01 
4.326358e-01 
4.215108e-01 
4.119342e-01 
4.040021e-01 
3.977963e-01 
3.933669e-01 
3.906990e-01 
3.910722e-01 
3.940568e-01 
3.990493e-01 
4.058740e-01 
4.144089e-01 
4.245461e-01 
4.361799e-01 
4.492076e-01 
4.635305e-01 
4.790535e-01 
4.956858e-01 
5.133416e-01 
5.319401e-01 
5.514047e-01 
5.716663e-01 
5.926616e-01 
6.143328e-01 
6.366265e-01 
6.594943e-01 
6.828917e-01 
7.067780e-01 
7.311162e-01 
7.558726e-01 
7.810161e-01 
8.065187e-01 
8.323544e-01 
8.584998e-01 
8.849332e-01 
9.116348e-01 
9.385864e-01 
9.657715e-01 
9.931746e-01 
1.020782e+00 
1.048580e+00 
1.076556e+00 
1.104701e+00 
1.133004e+00 
1.161454e+00 
8.064186e-01 
7.802052e-01 
7.543019e-01 
7.287499e-01 
7.035749e-01 
6.788072e-01 
6.544814e-01 
6.306355e-01 
6.073119e-01 
5.845577e-01 
5.624249e-01 
5.409714e-01 
5.202611e-01 
5.003640e-01 
4.813571e-01 
4.633244e-01 
4.463569e-01 
4.305525e-01 
4.160160e-01 
4.028583e-01 
3.911956e-01 
3.811450e-01 
3.728176e-01 
3.663097e-01 
3.616821e-01 
3.589206e-01 
3.593674e-01 
3.625240e-01 
3.677833e-01 
3.749620e-01 
3.839275e-01 
3.945599e-01 
4.067415e-01 
4.203577e-01 
4.352988e-01 
4.514599e-01 
4.687420e-01 
4.870522e-01 
5.063038e-01 
5.264158e-01 
5.473153e-01 
5.689363e-01 
5.912188e-01 
6.141079e-01 
6.375542e-01 
6.615123e-01 
6.859415e-01 
7.108043e-01 
7.360672e-01 
7.616995e-01 
7.876732e-01 
8.139629e-01 
8.405456e-01 
8.674002e-01 
8.945074e-01 
9.218497e-01 
9.494109e-01 
9.771762e-01 
1.005132e+00 
1.033266e+00 
1.061567e+00 
1.090024e+00 
1.118627e+00 
1.147368e+00 
7.887083e-01 
7.620237e-01 
7.356298e-01 
7.095666e-01 
6.838600e-01 
6.585402e-01 
6.336409e-01 
6.092001e-01 
5.852603e-01 
5.618691e-01 
5.390797e-01 
5.169515e-01 
4.955506e-01 
4.749503e-01 
4.552316e-01 
4.364838e-01 
4.188050e-01 
4.023018e-01 
3.870894e-01 
3.732912e-01 
3.610378e-01 
3.504635e-01 
3.416977e-01 
3.348543e-01 
3.300078e-01 
3.271439e-01 
3.276633e-01 
3.310051e-01 
3.365577e-01 
3.441264e-01 
3.535657e-01 
3.647411e-01 
3.775202e-01 
3.917748e-01 
4.073826e-01 
4.242279e-01 
4.422023e-01 
4.612056e-01 
4.811449e-01 
5.019348e-01 
5.234988e-01 
5.457684e-01 
5.686817e-01 
5.921825e-01 
6.162206e-01 
6.407504e-01 
6.657309e-01 
6.911249e-01 
7.168990e-01 
7.430230e-01 
7.694695e-01 
7.962138e-01 
8.232334e-01 
8.505078e-01 
8.780186e-01 
9.057487e-01 
9.336827e-01 
9.618065e-01 
9.901073e-01 
1.018573e+00 
1.047193e+00 
1.075958e+00 
1.104857e+00 
1.133883e+00 
7.717281e-01 
7.445746e-01 
7.176903e-01 
6.911140e-01 
6.648721e-01 
6.389940e-01 
6.135128e-01 
5.884660e-01 
5.638959e-01 
5.398502e-01 
5.163828e-01 
4.935543e-01 
4.714327e-01 
4.500939e-01 
4.296230e-01 
4.101145e-01 
3.916734e-01 
3.744157e-01 
3.584682e-01 
3.439684e-01 
3.310636e-01 
3.199079e-01 
3.106530e-01 
3.034350e-01 
2.983453e-01 
2.953690e-01 
2.959594e-01 
2.995023e-01 
3.053791e-01 
3.133801e-01 
3.233432e-01 
3.351163e-01 
3.485496e-01 
3.634985e-01 
3.798265e-01 
3.974057e-01 
4.161179e-01 
4.358548e-01 
4.565175e-01 
4.780161e-01 
5.002710e-01 
5.232113e-01 
5.467735e-01 
5.709008e-01 
5.955423e-01 
6.206526e-01 
6.461907e-01 
6.721200e-01 
6.984077e-01 
7.250243e-01 
7.519431e-01 
7.791401e-01 
8.065937e-01 
8.342844e-01 
8.621942e-01 
8.903072e-01 
9.186086e-01 
9.470852e-01 
9.757246e-01 
1.004516e+00 
1.033448e+00 
1.062513e+00 
1.091702e+00 
1.121006e+00 
7.555199e-01 
7.279019e-01 
7.005304e-01 
6.734425e-01 
6.466643e-01 
6.202242e-01 
5.941549e-01 
5.684931e-01 
5.432806e-01 
5.185649e-01 
4.943999e-01 
4.708469e-01 
4.479751e-01 
4.258628e-01 
4.045983e-01 
3.842812e-01 
3.650236e-01 
3.469510e-01 
3.302025e-01 
3.149318e-01 
3.013056e-01 
2.895012e-01 
2.796974e-01 
2.720579e-01 
2.666966e-01 
2.635965e-01 
2.642558e-01 
2.680181e-01 
2.742561e-01 
2.827392e-01 
2.932846e-01 
3.057185e-01 
3.198702e-01 
3.355760e-01 
3.526831e-01 
3.710501e-01 
3.905482e-01 
4.110610e-01 
4.324834e-01 
4.547213e-01 
4.776926e-01 
5.013244e-01 
5.255522e-01 
5.503188e-01 
5.755733e-01 
6.012707e-01 
6.273706e-01 
6.538373e-01 
6.806388e-01 
7.077466e-01 
7.351349e-01 
7.627809e-01 
7.906638e-01 
8.187650e-01 
8.470678e-01 
8.755568e-01 
9.042184e-01 
9.330400e-01 
9.620101e-01 
9.911186e-01 
1.020356e+00 
1.049713e+00 
1.079182e+00 
1.108757e+00 
7.401278e-01 
7.120519e-01 
6.841990e-01 
6.566040e-01 
6.292918e-01 
6.022899e-01 
5.756296e-01 
5.493470e-01 
5.234829e-01 
4.980843e-01 
4.732046e-01 
4.489049e-01 
4.252551e-01 
4.023349e-01 
3.802353e-01 
3.590605e-01 
3.389292e-01 
3.199762e-01 
3.023542e-01 
2.862342e-01 
2.718056e-01 
2.592735e-01 
2.488491e-01 
2.407319e-01 
2.350651e-01 
2.318282e-01 
2.325536e-01 
2.365571e-01 
2.432006e-01 
2.522246e-01 
2.634207e-01 
2.765885e-01 
2.915317e-01 
3.080645e-01 
3.260153e-01 
3.452280e-01 
3.655625e-01 
3.868944e-01 
4.091125e-01 
4.321197e-01 
4.558314e-01 
4.801736e-01 
5.050813e-01 
5.304976e-01 
5.563722e-01 
5.826608e-01 
6.093243e-01 
6.363280e-01 
6.636412e-01 
6.912365e-01 
7.190895e-01 
7.471785e-01 
7.754840e-01 
8.039883e-01 
8.326760e-01 
8.615326e-01 
8.905455e-01 
9.197030e-01 
9.489946e-01 
9.784107e-01 
1.007943e+00 
1.037583e+00 
1.067323e+00 
1.097158e+00 
7.255938e-01 
6.970699e-01 
6.687448e-01 
6.406506e-01 
6.128110e-01 
5.852518e-01 
5.580027e-01 
5.310982e-01 
5.045779e-01 
4.784876e-01 
4.528796e-01 
4.278144e-01 
4.033614e-01 
3.796009e-01 
3.566257e-01 
3.345434e-01 
3.134786e-01 
2.935756e-01 
2.750003e-01 
2.579428e-01 
2.426183e-01 
2.292645e-01 
2.181329e-01 
2.094690e-01 
2.034561e-01 
2.000672e-01 
2.008553e-01 
2.051255e-01 
2.122276e-01 
2.218627e-01 
2.337903e-01 
2.477768e-01 
2.635952e-01 
2.810332e-01 
2.998981e-01 
3.200177e-01 
3.412407e-01 
3.634346e-01 
3.864835e-01 
4.102876e-01 
4.347609e-01 
4.598292e-01 
4.854279e-01 
5.115010e-01 
5.379993e-01 
5.648800e-01 
5.921055e-01 
6.196427e-01 
6.474623e-01 
6.755386e-01 
7.038488e-01 
7.323723e-01 
7.610911e-01 
7.899890e-01 
8.190514e-01 
8.482653e-01 
8.776190e-01 
9.071017e-01 
9.367041e-01 
9.664173e-01 
9.962334e-01 
1.026145e+00 
1.056147e+00 
1.086231e+00 
7.119290e-01 
6.829747e-01 
6.541920e-01 
6.256119e-01 
5.972571e-01 
5.691514e-01 
5.413223e-01 
5.138021e-01 
4.866283e-01 
4.598446e-01 
4.335016e-01 
4.076581e-01 
3.823823e-01 
3.577539e-01 
3.338661e-01 
3.108285e-01 
2.887707e-01 
2.678451e-01 
2.482309e-01 
2.301382e-01 
2.138099e-01 
1.995224e-01 
1.875777e-01 
1.782819e-01 
1.718741e-01 
1.683133e-01 
1.691509e-01 
1.737151e-01 
1.813397e-01 
1.916707e-01 
2.044275e-01 
2.193340e-01 
2.361248e-01 
2.545566e-01 
2.744127e-01 
2.955045e-01 
3.176695e-01 
3.407681e-01 
3.646808e-01 
3.893065e-01 
4.145593e-01 
4.403655e-01 
4.666621e-01 
4.933946e-01 
5.205159e-01 
5.479851e-01 
5.757668e-01 
6.038297e-01 
6.321468e-01 
6.606939e-01 
6.894501e-01 
7.183965e-01 
7.475165e-01 
7.767954e-01 
8.062199e-01 
8.357783e-01 
8.654600e-01 
8.952553e-01 
9.251558e-01 
9.551536e-01 
9.852416e-01 
1.015414e+00 
1.045664e+00 
1.075986e+00 
6.992494e-01 
6.698765e-01 
6.406503e-01 
6.115993e-01 
5.827431e-01 
5.541034e-01 
5.257052e-01 
4.975780e-01 
4.697566e-01 
4.422817e-01 
4.152007e-01 
3.885696e-01 
3.624541e-01 
3.369318e-01 
3.120947e-01 
2.880529e-01 
2.649385e-01 
2.429103e-01 
2.221598e-01 
2.029165e-01 
1.854544e-01 
1.700953e-01 
1.572047e-01 
1.471686e-01 
1.403047e-01 
1.365542e-01 
1.374451e-01 
1.423454e-01 
1.505774e-01 
1.617114e-01 
1.754178e-01 
1.913653e-01 
2.092400e-01 
2.287616e-01 
2.496886e-01 
2.718161e-01 
2.949720e-01 
3.190114e-01 
3.438135e-01 
3.692777e-01 
3.953193e-01 
4.218668e-01 
4.488596e-01 
4.762458e-01 
5.039811e-01 
5.320273e-01 
5.603515e-01 
5.889250e-01 
6.177229e-01 
6.467234e-01 
6.759073e-01 
7.052579e-01 
7.347601e-01 
7.644007e-01 
7.941679e-01 
8.240514e-01 
8.540416e-01 
8.841301e-01 
9.143094e-01 
9.445727e-01 
9.749137e-01 
1.005327e+00 
1.035807e+00 
1.066350e+00 
6.875770e-01 
6.578058e-01 
6.281559e-01 
5.986533e-01 
5.693151e-01 
5.401602e-01 
5.112108e-01 
4.824931e-01 
4.540383e-01 
4.258831e-01 
3.980711e-01 
3.706535e-01 
3.436920e-01 
3.172599e-01 
2.914462e-01 
2.663587e-01 
2.421294e-01 
2.189204e-01 
1.969324e-01 
1.764135e-01 
1.576697e-01 
1.410752e-01 
1.270742e-01 
1.161596e-01 
1.087633e-01 
1.047994e-01 
1.057378e-01 
1.110206e-01 
1.199630e-01 
1.320312e-01 
1.468344e-01 
1.639667e-01 
1.830533e-01 
2.037723e-01 
2.258563e-01 
2.490859e-01 
2.732820e-01 
2.982977e-01 
3.240133e-01 
3.503306e-01 
3.771683e-01 
4.044585e-01 
4.321442e-01 
4.601774e-01 
4.885174e-01 
5.171292e-01 
5.459831e-01 
5.750533e-01 
6.043175e-01 
6.337564e-01 
6.633531e-01 
6.930925e-01 
7.229618e-01 
7.529492e-01 
7.830445e-01 
8.132386e-01 
8.435233e-01 
8.738914e-01 
9.043363e-01 
9.348522e-01 
9.654336e-01 
9.960759e-01 
1.026775e+00 
1.057526e+00 
6.769588e-01 
6.468131e-01 
6.167637e-01 
5.868345e-01 
5.570400e-01 
5.273960e-01 
4.979212e-01 
4.686382e-01 
4.395738e-01 
4.107599e-01 
3.822347e-01 
3.540438e-01 
3.262426e-01 
2.988981e-01 
2.720928e-01 
2.459292e-01 
2.205349e-01 
1.960710e-01 
1.727423e-01 
1.508109e-01 
1.306135e-01 
1.125815e-01 
9.725696e-02 
8.528066e-02 
7.725494e-02 
7.304967e-02 
7.402829e-02 
7.975118e-02 
8.953769e-02 
1.027064e-01 
1.187915e-01 
1.372815e-01 
1.577249e-01 
1.797548e-01 
2.030800e-01 
2.274713e-01 
2.527469e-01 
2.787625e-01 
3.054031e-01 
3.325757e-01 
3.602045e-01 
3.882271e-01 
4.165915e-01 
4.452546e-01 
4.741800e-01 
5.033370e-01 
5.326992e-01 
5.622442e-01 
5.919528e-01 
6.218081e-01 
6.517956e-01 
6.819026e-01 
7.121179e-01 
7.424315e-01 
7.728350e-01 
8.033204e-01 
8.338809e-01 
8.645105e-01 
8.952035e-01 
9.259551e-01 
9.567607e-01 
9.876165e-01 
1.018519e+00 
1.049464e+00 
6.674457e-01 
6.369539e-01 
6.065343e-01 
5.762088e-01 
5.459894e-01 
5.158888e-01 
4.859222e-01 
4.561080e-01 
4.264678e-01 
3.970282e-01 
3.678208e-01 
3.388842e-01 
3.102655e-01 
2.820231e-01 
2.542297e-01 
2.269775e-01 
2.003846e-01 
1.746039e-01 
1.498364e-01 
1.263494e-01 
1.045027e-01 
8.478533e-02 
6.785660e-02 
5.456551e-02 
4.578500e-02 
4.130475e-02 
4.231486e-02 
4.854978e-02 
5.936032e-02 
7.384628e-02 
9.145188e-02 
1.115068e-01 
1.334670e-01 
1.569218e-01 
1.815647e-01 
2.071644e-01 
2.335444e-01 
2.605689e-01 
2.881315e-01 
3.161479e-01 
3.445501e-01 
3.732830e-01 
4.023014e-01 
4.315679e-01 
4.610511e-01 
4.907251e-01 
5.205674e-01 
5.505593e-01 
5.806846e-01 
6.109293e-01 
6.412813e-01 
6.717302e-01 
7.022666e-01 
7.328826e-01 
7.635709e-01 
7.943252e-01 
8.251400e-01 
8.560102e-01 
8.869314e-01 
9.178995e-01 
9.489109e-01 
9.799624e-01 
1.011051e+00 
1.042174e+00 
6.590883e-01 
6.282836e-01 
5.975282e-01 
5.668427e-01 
5.362364e-01 
5.057190e-01 
4.753023e-01 
4.450001e-01 
4.148293e-01 
3.848101e-01 
3.549669e-01 
3.253298e-01 
2.959362e-01 
2.668330e-01 
2.380801e-01 
2.097546e-01 
1.819576e-01 
1.548246e-01 
1.285398e-01 
1.033598e-01 
7.965022e-02 
5.794438e-02 
3.903154e-02 
2.405939e-02 
1.435702e-02 
9.560998e-03 
1.059325e-02 
1.743289e-02 
2.952051e-02 
4.561197e-02 
6.505544e-02 
8.692008e-02 
1.105621e-01 
1.355440e-01 
1.615604e-01 
1.883923e-01 
2.158791e-01 
2.438999e-01 
2.723620e-01 
3.011930e-01 
3.303354e-01 
3.597432e-01 
3.893787e-01 
4.192114e-01 
4.492157e-01 
4.793703e-01 
5.096574e-01 
5.400618e-01 
5.705707e-01 
6.011728e-01 
6.318586e-01 
6.626199e-01 
6.934492e-01 
7.243403e-01 
7.552875e-01 
7.862859e-01 
8.173311e-01 
8.484192e-01 
8.795467e-01 
9.107104e-01 
9.419076e-01 
9.731358e-01 
1.004393e+00 
1.035676e+00 
6.519381e-01 
6.208575e-01 
5.898057e-01 
5.588021e-01 
5.278537e-01 
4.969672e-01 
4.661509e-01 
4.354146e-01 
4.047698e-01 
3.742309e-01 
3.438151e-01 
3.135433e-01 
2.834421e-01 
2.535450e-01 
2.238956e-01 