# vtk DataFile Version 2.0 
Quadtree Mesh 
ASCII 
DATASET UNSTRUCTURED_GRID 
POINTS 4096 double 
-1.000000e+00 -1.000000e+00 0.000000e+00
-9.682540e-01 -1.000000e+00 0.000000e+00
-9.365079e-01 -1.000000e+00 0.000000e+00
-9.047619e-01 -1.000000e+00 0.000000e+00
-8.730159e-01 -1.000000e+00 0.000000e+00
-8.412698e-01 -1.000000e+00 0.000000e+00
-8.095238e-01 -1.000000e+00 0.000000e+00
-7.777778e-01 -1.000000e+00 0.000000e+00
-7.460317e-01 -1.000000e+00 0.000000e+00
-7.142857e-01 -1.000000e+00 0.000000e+00
-6.825397e-01 -1.000000e+00 0.000000e+00
-6.507937e-01 -1.000000e+00 0.000000e+00
-6.190476e-01 -1.000000e+00 0.000000e+00
-5.873016e-01 -1.000000e+00 0.000000e+00
-5.555556e-01 -1.000000e+00 0.000000e+00
-5.238095e-01 -1.000000e+00 0.000000e+00
-4.920635e-01 -1.000000e+00 0.000000e+00
-4.603175e-01 -1.000000e+00 0.000000e+00
-4.285714e-01 -1.000000e+00 0.000000e+00
-3.968254e-01 -1.000000e+00 0.000000e+00
-3.650794e-01 -1.000000e+00 0.000000e+00
-3.333333e-01 -1.000000e+00 0.000000e+00
-3.015873e-01 -1.000000e+00 0.000000e+00
-2.698413e-01 -1.000000e+00 0.000000e+00
-2.380952e-01 -1.000000e+00 0.000000e+00
-2.063492e-01 -1.000000e+00 0.000000e+00
-1.746032e-01 -1.000000e+00 0.000000e+00
-1.428571e-01 -1.000000e+00 0.000000e+00
-1.111111e-01 -1.000000e+00 0.000000e+00
-7.936508e-02 -1.000000e+00 0.000000e+00
-4.761905e-02 -1.000000e+00 0.000000e+00
-1.587302e-02 -1.000000e+00 0.000000e+00
1.587302e-02 -1.000000e+00 0.000000e+00
4.761905e-02 -1.000000e+00 0.000000e+00
7.936508e-02 -1.000000e+00 0.000000e+00
1.111111e-01 -1.000000e+00 0.000000e+00
1.428571e-01 -1.000000e+00 0.000000e+00
1.746032e-01 -1.000000e+00 0.000000e+00
2.063492e-01 -1.000000e+00 0.000000e+00
2.380952e-01 -1.000000e+00 0.000000e+00
2.698413e-01 -1.000000e+00 0.000000e+00
3.015873e-01 -1.000000e+00 0.000000e+00
3.333333e-01 -1.000000e+00 0.000000e+00
3.650794e-01 -1.000000e+00 0.000000e+00
3.968254e-01 -1.000000e+00 0.000000e+00
4.285714e-01 -1.000000e+00 0.000000e+00
4.603175e-01 -1.000000e+00 0.000000e+00
4.920635e-01 -1.000000e+00 0.000000e+00
5.238095e-01 -1.000000e+00 0.000000e+00
5.555556e-01 -1.000000e+00 0.000000e+00
5.873016e-01 -1.000000e+00 0.000000e+00
6.190476e-01 -1.000000e+00 0.000000e+00
6.507937e-01 -1.000000e+00 0.000000e+00
6.825397e-01 -1.000000e+00 0.000000e+00
7.142857e-01 -1.000000e+00 0.000000e+00
7.460317e-01 -1.000000e+00 0.000000e+00
7.777778e-01 -1.000000e+00 0.000000e+00
8.095238e-01 -1.000000e+00 0.000000e+00
8.412698e-01 -1.000000e+00 0.000000e+00
8.730159e-01 -1.000000e+00 0.000000e+00
9.047619e-01 -1.000000e+00 0.000000e+00
9.365079e-01 -1.000000e+00 0.000000e+00
9.682540e-01 -1.000000e+00 0.000000e+00
1.000000e+00 -1.000000e+00 0.000000e+00
-1.000000e+00 -9.682540e-01 0.000000e+00
-9.682540e-01 -9.682540e-01 0.000000e+00
-9.365079e-01 -9.682540e-01 0.000000e+00
-9.047619e-01 -9.682540e-01 0.000000e+00
-8.730159e-01 -9.682540e-01 0.000000e+00
-8.412698e-01 -9.682540e-01 0.000000e+00
-8.095238e-01 -9.682540e-01 0.000000e+00
-7.777778e-01 -9.682540e-01 0.000000e+00
-7.460317e-01 -9.682540e-01 0.000000e+00
-7.142857e-01 -9.682540e-01 0.000000e+00
-6.825397e-01 -9.682540e-01 0.000000e+00
-6.507937e-01 -9.682540e-01 0.000000e+00
-6.190476e-01 -9.682540e-01 0.000000e+00
-5.873016e-01 -9.682540e-01 0.000000e+00
-5.555556e-01 -9.682540e-01 0.000000e+00
-5.238095e-01 -9.682540e-01 0.000000e+00
-4.920635e-01 -9.682540e-01 0.000000e+00
-4.603175e-01 -9.682540e-01 0.000000e+00
-4.285714e-01 -9.682540e-01 0.000000e+00
-3.968254e-01 -9.682540e-01 0.000000e+00
-3.650794e-01 -9.682540e-01 0.000000e+00
-3.333333e-01 -9.682540e-01 0.000000e+00
-3.015873e-01 -9.682540e-01 0.000000e+00
-2.698413e-01 -9.682540e-01 0.000000e+00
-2.380952e-01 -9.682540e-01 0.000000e+00
-2.063492e-01 -9.682540e-01 0.000000e+00
-1.746032e-01 -9.682540e-01 0.000000e+00
-1.428571e-01 -9.682540e-01 0.000000e+00
-1.111111e-01 -9.682540e-01 0.000000e+00
-7.936508e-02 -9.682540e-01 0.000000e+00
-4.761905e-02 -9.682540e-01 0.000000e+00
-1.587302e-02 -9.682540e-01 0.000000e+00
1.587302e-02 -9.682540e-01 0.000000e+00
4.761905e-02 -9.682540e-01 0.000000e+00
7.936508e-02 -9.682540e-01 0.000000e+00
1.111111e-01 -9.682540e-01 0.000000e+00
1.428571e-01 -9.682540e-01 0.000000e+00
1.746032e-01 -9.682540e-01 0.000000e+00
2.063492e-01 -9.682540e-01 0.000000e+00
2.380952e-01 -9.682540e-01 0.000000e+00
2.698413e-01 -9.682540e-01 0.000000e+00
3.015873e-01 -9.682540e-01 0.000000e+00
3.333333e-01 -9.682540e-01 0.000000e+00
3.650794e-01 -9.682540e-01 0.000000e+00
3.968254e-01 -9.682540e-01 0.000000e+00
4.285714e-01 -9.682540e-01 0.000000e+00
4.603175e-01 -9.682540e-01 0.000000e+00
4.920635e-01 -9.682540e-01 0.000000e+00
5.238095e-01 -9.682540e-01 0.000000e+00
5.555556e-01 -9.682540e-01 0.000000e+00
5.873016e-01 -9.682540e-01 0.000000e+00
6.190476e-01 -9.682540e-01 0.000000e+00
6.507937e-01 -9.682540e-01 0.000000e+00
6.825397e-01 -9.682540e-01 0.000000e+00
7.142857e-01 -9.682540e-01 0.000000e+00
7.460317e-01 -9.682540e-01 0.000000e+00
7.777778e-01 -9.682540e-01 0.000000e+00
8.095238e-01 -9.682540e-01 0.000000e+00
8.412698e-01 -9.682540e-01 0.000000e+00
8.730159e-01 -9.682540e-01 0.000000e+00
9.047619e-01 -9.682540e-01 0.000000e+00
9.365079e-01 -9.682540e-01 0.000000e+00
9.682540e-01 -9.682540e-01 0.000000e+00
1.000000e+00 -9.682540e-01 0.000000e+00
-1.000000e+00 -9.365079e-01 0.000000e+00
-9.682540e-01 -9.365079e-01 0.000000e+00
-9.365079e-01 -9.365079e-01 0.000000e+00
-9.047619e-01 -9.365079e-01 0.000000e+00
-8.730159e-01 -9.365079e-01 0.000000e+00
-8.412698e-01 -9.365079e-01 0.000000e+00
-8.095238e-01 -9.365079e-01 0.000000e+00
-7.777778e-01 -9.365079e-01 0.000000e+00
-7.460317e-01 -9.365079e-01 0.000000e+00
-7.142857e-01 -9.365079e-01 0.000000e+00
-6.825397e-01 -9.365079e-01 0.000000e+00
-6.507937e-01 -9.365079e-01 0.000000e+00
-6.190476e-01 -9.365079e-01 0.000000e+00
-5.873016e-01 -9.365079e-01 0.000000e+00
-5.555556e-01 -9.365079e-01 0.000000e+00
-5.238095e-01 -9.365079e-01 0.000000e+00
-4.920635e-01 -9.365079e-01 0.000000e+00
-4.603175e-01 -9.365079e-01 0.000000e+00
-4.285714e-01 -9.365079e-01 0.000000e+00
-3.968254e-01 -9.365079e-01 0.000000e+00
-3.650794e-01 -9.365079e-01 0.000000e+00
-3.333333e-01 -9.365079e-01 0.000000e+00
-3.015873e-01 -9.365079e-01 0.000000e+00
-2.698413e-01 -9.365079e-01 0.000000e+00
-2.380952e-01 -9.365079e-01 0.000000e+00
-2.063492e-01 -9.365079e-01 0.000000e+00
-1.746032e-01 -9.365079e-01 0.000000e+00
-1.428571e-01 -9.365079e-01 0.000000e+00
-1.111111e-01 -9.365079e-01 0.000000e+00
-7.936508e-02 -9.365079e-01 0.000000e+00
-4.761905e-02 -9.365079e-01 0.000000e+00
-1.587302e-02 -9.365079e-01 0.000000e+00
1.587302e-02 -9.365079e-01 0.000000e+00
4.761905e-02 -9.365079e-01 0.000000e+00
7.936508e-02 -9.365079e-01 0.000000e+00
1.111111e-01 -9.365079e-01 0.000000e+00
1.428571e-01 -9.365079e-01 0.000000e+00
1.746032e-01 -9.365079e-01 0.000000e+00
2.063492e-01 -9.365079e-01 0.000000e+00
2.380952e-01 -9.365079e-01 0.000000e+00
2.698413e-01 -9.365079e-01 0.000000e+00
3.015873e-01 -9.365079e-01 0.000000e+00
3.333333e-01 -9.365079e-01 0.000000e+00
3.650794e-01 -9.365079e-01 0.000000e+00
3.968254e-01 -9.365079e-01 0.000000e+00
4.285714e-01 -9.365079e-01 0.000000e+00
4.603175e-01 -9.365079e-01 0.000000e+00
4.920635e-01 -9.365079e-01 0.000000e+00
5.238095e-01 -9.365079e-01 0.000000e+00
5.555556e-01 -9.365079e-01 0.000000e+00
5.873016e-01 -9.365079e-01 0.000000e+00
6.190476e-01 -9.365079e-01 0.000000e+00
6.507937e-01 -9.365079e-01 0.000000e+00
6.825397e-01 -9.365079e-01 0.000000e+00
7.142857e-01 -9.365079e-01 0.000000e+00
7.460317e-01 -9.365079e-01 0.000000e+00
7.777778e-01 -9.365079e-01 0.000000e+00
8.095238e-01 -9.365079e-01 0.000000e+00
8.412698e-01 -9.365079e-01 0.000000e+00
8.730159e-01 -9.365079e-01 0.000000e+00
9.047619e-01 -9.365079e-01 0.000000e+00
9.365079e-01 -9.365079e-01 0.000000e+00
9.682540e-01 -9.365079e-01 0.000000e+00
1.000000e+00 -9.365079e-01 0.000000e+00
-1.000000e+00 -9.047619e-01 0.000000e+00
-9.682540e-01 -9.047619e-01 0.000000e+00
-9.365079e-01 -9.047619e-01 0.000000e+00
-9.047619e-01 -9.047619e-01 0.000000e+00
-8.730159e-01 -9.047619e-01 0.000000e+00
-8.412698e-01 -9.047619e-01 0.000000e+00
-8.095238e-01 -9.047619e-01 0.000000e+00
-7.777778e-01 -9.047619e-01 0.000000e+00
-7.460317e-01 -9.047619e-01 0.000000e+00
-7.142857e-01 -9.047619e-01 0.000000e+00
-6.825397e-01 -9.047619e-01 0.000000e+00
-6.507937e-01 -9.047619e-01 0.000000e+00
-6.190476e-01 -9.047619e-01 0.000000e+00
-5.873016e-01 -9.047619e-01 0.000000e+00
-5.555556e-01 -9.047619e-01 0.000000e+00
-5.238095e-01 -9.047619e-01 0.000000e+00
-4.920635e-01 -9.047619e-01 0.000000e+00
-4.603175e-01 -9.047619e-01 0.000000e+00
-4.285714e-01 -9.047619e-01 0.000000e+00
-3.968254e-01 -9.047619e-01 0.000000e+00
-3.650794e-01 -9.047619e-01 0.000000e+00
-3.333333e-01 -9.047619e-01 0.000000e+00
-3.015873e-01 -9.047619e-01 0.000000e+00
-2.698413e-01 -9.047619e-01 0.000000e+00
-2.380952e-01 -9.047619e-01 0.000000e+00
-2.063492e-01 -9.047619e-01 0.000000e+00
-1.746032e-01 -9.047619e-01 0.000000e+00
-1.428571e-01 -9.047619e-01 0.000000e+00
-1.111111e-01 -9.047619e-01 0.000000e+00
-7.936508e-02 -9.047619e-01 0.000000e+00
-4.761905e-02 -9.047619e-01 0.000000e+00
-1.587302e-02 -9.047619e-01 0.000000e+00
1.587302e-02 -9.047619e-01 0.000000e+00
4.761905e-02 -9.047619e-01 0.000000e+00
7.936508e-02 -9.047619e-01 0.000000e+00
1.111111e-01 -9.047619e-01 0.000000e+00
1.428571e-01 -9.047619e-01 0.000000e+00
1.746032e-01 -9.047619e-01 0.000000e+00
2.063492e-01 -9.047619e-01 0.000000e+00
2.380952e-01 -9.047619e-01 0.000000e+00
2.698413e-01 -9.047619e-01 0.000000e+00
3.015873e-01 -9.047619e-01 0.000000e+00
3.333333e-01 -9.047619e-01 0.000000e+00
3.650794e-01 -9.047619e-01 0.000000e+00
3.968254e-01 -9.047619e-01 0.000000e+00
4.285714e-01 -9.047619e-01 0.000000e+00
4.603175e-01 -9.047619e-01 0.000000e+00
4.920635e-01 -9.047619e-01 0.000000e+00
5.238095e-01 -9.047619e-01 0.000000e+00
5.555556e-01 -9.047619e-01 0.000000e+00
5.873016e-01 -9.047619e-01 0.000000e+00
6.190476e-01 -9.047619e-01 0.000000e+00
[...]
POINT_DATA 4096 
SCALARS concentration double 1 
LOOKUP_TABLE default 
1.486427e+00 
1.464046e+00 
1.441943e+00 
1.420155e+00 
1.398691e+00 
1.377559e+00 
1.356770e+00 
1.336339e+00 
1.316278e+00 
1.296603e+00 
1.277327e+00 
1.258467e+00 
1.240039e+00 
1.222059e+00 
1.204546e+00 
1.187516e+00 
1.170989e+00 
1.154985e+00 
1.139523e+00 
1.124624e+00 
1.110309e+00 
1.096600e+00 
1.083517e+00 
1.071082e+00 
1.059317e+00 
1.048242e+00 
1.037880e+00 
1.028251e+00 
1.019377e+00 
1.011277e+00 
1.003970e+00 
9.974775e-01 
9.918173e-01 
9.870054e-01 
9.830527e-01 
9.799700e-01 
9.777692e-01 
9.764657e-01 
9.761342e-01 
9.770413e-01 
9.791763e-01 
9.824521e-01 
9.867742e-01 
9.920678e-01 
9.982789e-01 
1.005367e+00 
1.013302e+00 
1.022055e+00 
1.031601e+00 
1.041915e+00 
1.052975e+00 
1.064755e+00 
1.077229e+00 
1.090376e+00 
1.104171e+00 
1.118594e+00 
1.133621e+00 
1.149231e+00 
1.165402e+00 
1.182114e+00 
1.199348e+00 
1.217082e+00 
1.235298e+00 
1.253977e+00 
1.463970e+00 
1.441286e+00 
1.418880e+00 
1.396787e+00 
1.375013e+00 
1.353569e+00 
1.332466e+00 
1.311718e+00 
1.291339e+00 
1.271343e+00 
1.251746e+00 
1.232563e+00 
1.213811e+00 
1.195508e+00 
1.177671e+00 
1.160320e+00 
1.143472e+00 
1.127150e+00 
1.111373e+00 
1.096164e+00 
1.081544e+00 
1.067536e+00 
1.054162e+00 
1.041444e+00 
1.029407e+00 
1.018071e+00 
1.007461e+00 
9.975988e-01 
9.885057e-01 
9.802038e-01 
9.727141e-01 
9.660574e-01 
9.602541e-01 
9.553212e-01 
9.512702e-01 
9.481131e-01 
9.458628e-01 
9.445361e-01 
9.442223e-01 
9.452030e-01 
9.474471e-01 
9.508527e-01 
9.553199e-01 
9.607732e-01 
9.671596e-01 
9.744398e-01 
9.825824e-01 
9.915594e-01 
1.001345e+00 
1.011912e+00 
1.023238e+00 
1.035294e+00 
1.048055e+00 
1.061497e+00 
1.075595e+00 
1.090326e+00 
1.105667e+00 
1.121595e+00 
1.138087e+00 
1.155123e+00 
1.172681e+00 
1.190741e+00 
1.209283e+00 
1.228288e+00 
1.441831e+00 
1.418844e+00 
1.396130e+00 
1.373725e+00 
1.351635e+00 
1.329871e+00 
1.308447e+00 
1.287375e+00 
1.266669e+00 
1.246345e+00 
1.226417e+00 
1.206902e+00 
1.187818e+00 
1.169181e+00 
1.151011e+00 
1.133327e+00 
1.116149e+00 
1.099498e+00 
1.083395e+00 
1.067865e+00 
1.052928e+00 
1.038610e+00 
1.024933e+00 
1.011921e+00 
9.995997e-01 
9.879921e-01 
9.771225e-01 
9.670150e-01 
9.576929e-01 
9.491794e-01 
9.414970e-01 
9.346678e-01 
9.287136e-01 
9.236523e-01 
9.194969e-01 
9.162604e-01 
9.139568e-01 
9.126047e-01 
9.123103e-01 
9.133693e-01 
9.157263e-01 
9.192649e-01 
9.238806e-01 
9.294982e-01 
9.360656e-01 
9.435446e-01 
9.519033e-01 
9.611131e-01 
9.711467e-01 
9.819770e-01 
9.935774e-01 
1.005920e+00 
1.018978e+00 
1.032725e+00 
1.047135e+00 
1.062184e+00 
1.077847e+00 
1.094100e+00 
1.110921e+00 
1.128287e+00 
1.146176e+00 
1.164568e+00 
1.183441e+00 
1.202776e+00 
1.420013e+00 
1.396719e+00 
1.373695e+00 
1.350973e+00 
1.328561e+00 
1.306473e+00 
1.284720e+00 
1.263317e+00 
1.242278e+00 
1.221617e+00 
1.201351e+00 
1.181496e+00 
1.162069e+00 
1.143090e+00 
1.124577e+00 
1.106550e+00 
1.089031e+00 
1.072040e+00 
1.055601e+00 
1.039736e+00 
1.024472e+00 
1.009831e+00 
9.958383e-01 
9.825204e-01 
9.699024e-01 
9.580100e-01 
9.468689e-01 
9.365047e-01 
9.269423e-01 
9.182066e-01 
9.103215e-01 
9.033108e-01 
8.971976e-01 
8.920012e-01 
8.877356e-01 
8.844154e-01 
8.820559e-01 
8.806770e-01 
8.804057e-01 
8.815485e-01 
8.840227e-01 
8.876983e-01 
8.924672e-01 
8.982551e-01 
9.050113e-01 
9.126979e-01 
9.212827e-01 
9.307362e-01 
9.410295e-01 
9.521341e-01 
9.640216e-01 
9.766633e-01 
9.900295e-01 
1.004093e+00 
1.018826e+00 
1.034204e+00 
1.050200e+00 
1.066790e+00 
1.083949e+00 
1.101655e+00 
1.119884e+00 
1.138616e+00 
1.157828e+00 
1.177500e+00 
1.398528e+00 
1.374924e+00 
1.351587e+00 
1.328545e+00 
1.305807e+00 
1.283387e+00 
1.261300e+00 
1.239559e+00 
1.218178e+00 
1.197174e+00 
1.176561e+00 
1.156357e+00 
1.136579e+00 
1.117248e+00 
1.098381e+00 
1.080001e+00 
1.062129e+00 
1.044788e+00 
1.028000e+00 
1.011790e+00 
9.961844e-01 
9.812082e-01 
9.668878e-01 
9.532502e-01 
9.403225e-01 
9.281323e-01 
9.167068e-01 
9.060732e-01 
8.962585e-01 
8.872890e-01 
8.791907e-01 
8.719887e-01 
8.657079e-01 
8.603688e-01 
8.559872e-01 
8.525788e-01 
8.501603e-01 
8.487533e-01 
8.485090e-01 
8.497413e-01 
8.523374e-01 
8.561542e-01 
8.610815e-01 
8.670466e-01 
8.740001e-01 
8.819044e-01 
8.907266e-01 
9.004356e-01 
9.110012e-01 
9.223928e-01 
9.345805e-01 
9.475339e-01 
9.612216e-01 
9.756144e-01 
9.906840e-01 
1.006403e+00 
1.022744e+00 
1.039681e+00 
1.057190e+00 
1.075245e+00 
1.093824e+00 
1.112904e+00 
1.132464e+00 
1.152482e+00 
1.377388e+00 
1.353472e+00 
1.329818e+00 
1.306452e+00 
1.283384e+00 
1.260629e+00 
1.238201e+00 
1.216115e+00 
1.194386e+00 
1.173030e+00 
1.152062e+00 
1.131500e+00 
1.111363e+00 
1.091669e+00 
1.072439e+00 
1.053695e+00 
1.035459e+00 
1.017755e+00 
1.000606e+00 
9.840386e-01 
9.680788e-01 
9.527539e-01 
9.380917e-01 
9.241205e-01 
9.108693e-01 
8.983672e-01 
8.866434e-01 
8.757271e-01 
8.656470e-01 
8.564315e-01 
8.481083e-01 
8.407046e-01 
8.342467e-01 
8.287571e-01 
8.242528e-01 
8.207514e-01 
8.182707e-01 
8.168340e-01 
8.166213e-01 
8.179486e-01 
8.206706e-01 
8.246330e-01 
8.297246e-01 
8.358747e-01 
8.430352e-01 
8.511681e-01 
8.602397e-01 
8.702172e-01 
8.810684e-01 
8.927609e-01 
9.052626e-01 
9.185415e-01 
9.325644e-01 
9.473003e-01 
9.627191e-01 
9.787917e-01 
9.954899e-01 
1.012787e+00 
1.030656e+00 
1.049072e+00 
1.068011e+00 
1.087450e+00 
1.107366e+00 
1.127737e+00 
1.356605e+00 
1.332375e+00 
1.308401e+00 
1.284709e+00 
1.261308e+00 
1.238212e+00 
1.215438e+00 
1.193000e+00 
1.170916e+00 
1.149201e+00 
1.127870e+00 
1.106942e+00 
1.086435e+00 
1.066370e+00 
1.046766e+00 
1.027647e+00 
1.009035e+00 
9.909553e-01 
9.734329e-01 
9.564942e-01 
9.401669e-01 
9.244794e-01 
9.094610e-01 
8.951416e-01 
8.815521e-01 
8.687234e-01 
8.566867e-01 
8.454732e-01 
8.351139e-01 
8.256391e-01 
8.170788e-01 
8.094621e-01 
8.028172e-01 
7.971682e-01 
7.925343e-01 
7.889345e-01 
7.863881e-01 
7.849199e-01 
7.847436e-01 
7.861710e-01 
7.890228e-01 
7.931353e-01 
7.983978e-01 
8.047416e-01 
8.121195e-01 
8.204932e-01 
8.298274e-01 
8.400874e-01 
8.512387e-01 
8.632467e-01 
8.760773e-01 
8.896963e-01 
9.040691e-01 
9.191623e-01 
9.349441e-01 
9.513839e-01 
9.684522e-01 
9.861207e-01 
1.004362e+00 
1.023150e+00 
1.042460e+00 
1.062267e+00 
1.082548e+00 
1.103282e+00 
1.336196e+00 
1.311648e+00 
1.287352e+00 
1.263330e+00 
1.239592e+00 
1.216153e+00 
1.193028e+00 
1.170233e+00 
1.147786e+00 
1.125703e+00 
1.104000e+00 
1.082697e+00 
1.061811e+00 
1.041363e+00 
1.021375e+00 
1.001869e+00 
9.828695e-01 
9.644016e-01 
9.464920e-01 
9.291683e-01 
9.124593e-01 
8.963946e-01 
8.810049e-01 
8.663220e-01 
8.523785e-01 
8.392076e-01 
8.268425e-01 
8.153167e-01 
8.046634e-01 
7.949155e-01 
7.861050e-01 
7.782635e-01 
7.714209e-01 
7.656033e-01 
7.608321e-01 
7.571283e-01 
7.545127e-01 
7.530114e-01 
7.528773e-01 
7.544102e-01 
7.573961e-01 
7.616641e-01 
7.671051e-01 
7.736527e-01 
7.812601e-01 
7.898882e-01 
7.994995e-01 
8.100573e-01 
8.215245e-01 
8.338642e-01 
8.470397e-01 
8.610147e-01 
8.757530e-01 
8.912187e-01 
9.073783e-01 
9.241994e-01 
9.416514e-01 
9.597046e-01 
9.783305e-01 
9.975019e-01 
1.017193e+00 
1.037379e+00 
1.058035e+00 
1.079140e+00 
1.316172e+00 
1.291305e+00 
1.266683e+00 
1.242328e+00 
1.218249e+00 
1.194463e+00 
1.170983e+00 
1.147826e+00 
1.125010e+00 
1.102552e+00 
1.080470e+00 
1.058782e+00 
1.037508e+00 
1.016669e+00 
9.962867e-01 
9.763841e-01 
9.569860e-01 
9.381186e-01 
9.198099e-01 
9.020884e-01 
8.849841e-01 
8.685280e-01 
8.527523e-01 
8.376906e-01 
8.233776e-01 
8.098486e-01 
7.971392e-01 
7.852853e-01 
7.743227e-01 
7.642867e-01 
7.552121e-01 
7.471327e-01 
7.400811e-01 
7.340854e-01 
7.291694e-01 
7.253561e-01 
7.226679e-01 
7.211322e-01 
7.210391e-01 
7.226725e-01 
7.257927e-01 
7.302208e-01 
7.358488e-01 
7.426115e-01 
7.504622e-01 
7.593600e-01 
7.692653e-01 
7.801385e-01 
7.919398e-01 
8.046295e-01 
8.181684e-01 
8.325179e-01 
8.476394e-01 
8.634949e-01 
8.800490e-01 
8.972679e-01 
9.151194e-01 
9.335725e-01 
9.525977e-01 
9.721666e-01 
9.922524e-01 
1.012829e+00 
1.033873e+00 
1.055361e+00 
1.296554e+00 
1.271365e+00 
1.246416e+00 
1.221725e+00 
1.197304e+00 
1.173166e+00 
1.149328e+00 
1.125805e+00 
1.102615e+00 
1.079775e+00 
1.057306e+00 
1.035225e+00 
1.013554e+00 
9.923127e-01 
9.715241e-01 
9.512123e-01 
9.314025e-01 
9.121220e-01 
8.933990e-01 
8.752636e-01 
8.577470e-01 
8.408818e-01 
8.247020e-01 
8.092428e-01 
7.945411e-01 
7.806344e-01 
7.675611e-01 
7.553596e-01 
7.440685e-01 
7.337261e-01 
7.243699e-01 
7.160368e-01 
7.087623e-01 
7.025771e-01 
6.975072e-01 
6.935777e-01 
6.908128e-01 
6.892408e-01 
6.892008e-01 
6.909481e-01 
6.942117e-01 
6.988088e-01 
7.046345e-01 
7.116255e-01 
7.197345e-01 
7.289185e-01 
7.391352e-01 
7.503419e-01 
7.624957e-01 
7.755540e-01 
7.894748e-01 
8.042168e-01 
8.197390e-01 
8.360013e-01 
8.529665e-01 
8.705993e-01 
8.888657e-01 
9.077335e-01 
9.271718e-01 
9.471515e-01 
9.676447e-01 
9.886250e-01 
1.010067e+00 
1.031948e+00 
1.277353e+00 
1.251841e+00 
1.226563e+00 
1.201535e+00 
1.176768e+00 
1.152277e+00 
1.128077e+00 
1.104184e+00 
1.080615e+00 
1.057389e+00 
1.034525e+00 
1.012044e+00 
9.899661e-01 
9.683132e-01 
9.471081e-01 
9.263752e-01 
9.061409e-01 
8.864328e-01 
8.672805e-01 
8.487152e-01 
8.307696e-01 
8.134779e-01 
7.968759e-01 
7.810008e-01 
7.658914e-01 
7.515878e-01 
7.381310e-01 
7.255624e-01 
7.139238e-01 
7.032564e-01 
6.936011e-01 
6.849980e-01 
6.774854e-01 
6.710971e-01 
6.658618e-01 
6.618072e-01 
6.589594e-01 
6.573477e-01 
6.573651e-01 
6.592301e-01 
6.626412e-01 
6.674140e-01 
6.734472e-01 
6.806791e-01 
6.890610e-01 
6.985474e-01 
7.090924e-01 
7.206501e-01 
7.331740e-01 
7.466185e-01 
7.609382e-01 
7.760894e-01 
7.920284e-01 
8.087129e-01 
8.261037e-01 
8.441636e-01 
8.628571e-01 
8.821507e-01 
9.020123e-01 
9.224117e-01 
9.433202e-01 
9.647107e-01 
9.865575e-01 
1.008836e+00 
1.258585e+00 
1.232751e+00 
1.207143e+00 
1.181775e+00 
1.156660e+00 
1.131813e+00 
1.107248e+00 
1.082981e+00 
1.059029e+00 
1.035412e+00 
1.012148e+00 
9.892583e-01 
9.667649e-01 
9.446902e-01 
9.230576e-01 
9.018920e-01 
8.812203e-01 
8.610710e-01 
8.414746e-01 
8.224634e-01 
8.040717e-01 
7.863355e-01 
7.692923e-01 
7.529816e-01 
7.374444e-01 
7.227231e-01 
7.088619e-01 
6.959053e-01 
6.838983e-01 
6.728858e-01 
6.629124e-01 
6.540215e-01 
6.462549e-01 
6.396497e-01 
6.342378e-01 
6.300498e-01 
6.271138e-01 
6.254599e-01 
6.255403e-01 
6.275271e-01 
6.310910e-01 
6.360483e-01 
6.423015e-01 
6.497896e-01 
6.584620e-01 
6.682698e-01 
6.791632e-01 
6.910923e-01 
7.040070e-01 
7.178580e-01 
7.325968e-01 
7.481765e-01 
7.645509e-01 
7.816753e-01 
7.995084e-01 
8.180110e-01 
8.371462e-01 
8.568790e-01 
8.771761e-01 
8.980063e-01 
9.193402e-01 
9.411499e-01 
9.634092e-01 
9.860935e-01 
1.240270e+00 
1.214113e+00 
1.188173e+00 
1.162465e+00 
1.137001e+00 
1.111795e+00 
1.086861e+00 
1.062217e+00 
1.037879e+00 
1.013865e+00 
9.901957e-01 
9.668910e-01 
9.439738e-01 
9.214676e-01 
8.993965e-01 
8.777863e-01 
8.566643e-01 
8.360597e-01 
8.160039e-01 
7.965306e-01 
7.776753e-01 
7.594757e-01 
7.419715e-01 
7.252044e-01 
7.092177e-01 
6.940569e-01 
6.797687e-01 
6.664013e-01 
6.540035e-01 
6.426241e-01 
6.323115e-01 
6.231133e-01 
6.150752e-01 
6.082379e-01 
6.026371e-01 
5.983064e-01 
5.952765e-01 
5.935783e-01 
5.937269e-01 
5.958397e-01 
5.995626e-01 
6.047147e-01 
6.112023e-01 
6.189642e-01 
6.279469e-01 
6.380971e-01 
6.493610e-01 
6.616839e-01 
6.750119e-01 
6.892916e-01 
7.044711e-01 
7.205003e-01 
7.373301e-01 
7.549134e-01 
7.732066e-01 
7.921686e-01 
8.117609e-01 
8.319469e-01 
8.526925e-01 
8.739653e-01 
8.957351e-01 
9.179734e-01 
9.406536e-01 
9.637506e-01 
1.222425e+00 
1.195946e+00 
1.169674e+00 
1.143625e+00 
1.117810e+00 
1.092243e+00 
1.066940e+00 
1.041915e+00 
1.017187e+00 
9.927722e-01 
9.686916e-01 
9.449659e-01 
9.216175e-01 
8.986706e-01 
8.761505e-01 
8.540837e-01 
8.324984e-01 
8.114244e-01 
7.908940e-01 
7.709419e-01 
7.516050e-01 
7.329227e-01 
7.149369e-01 
6.976914e-01 
6.812325e-01 
6.656084e-01 
6.508691e-01 
6.370665e-01 
6.242534e-01 
6.124829e-01 
6.018081e-01 
5.922810e-01 
5.839518e-01 
5.768656e-01 
5.710621e-01 
5.665784e-01 
5.634483e-01 
5.617036e-01 
5.619248e-01 
5.641673e-01 
5.680563e-01 
5.734155e-01 
5.801541e-01 
5.882094e-01 
5.975241e-01 
6.080400e-01 
6.196982e-01 
6.324395e-01 
6.462049e-01 
6.609372e-01 
6.765806e-01 
6.930816e-01 
7.103880e-01 
7.284501e-01 
7.472220e-01 
7.666608e-01 
7.867262e-01 
8.073802e-01 
8.285875e-01 
8.503148e-01 
8.725313e-01 
8.952079e-01 
9.183173e-01 
9.418343e-01 
1.205067e+00 
1.178266e+00 
1.151663e+00 
1.125272e+00 
1.099106e+00 
1.073177e+00 
1.047502e+00 
1.022095e+00 
9.969728e-01 
9.721542e-01 
9.476584e-01 
9.235063e-01 
8.997204e-01 
8.763251e-01 
8.533463e-01 
8.308119e-01 
8.087508e-01 
7.871935e-01 
7.661731e-01 
7.457253e-01 
7.258885e-01 
7.067037e-01 
6.882148e-01 
6.704681e-01 
6.535126e-01 
6.373997e-01 
6.221831e-01 
6.079186e-01 
5.946634e-01 
5.824755e-01 
5.714129e-01 
5.615330e-01 
5.528911e-01 
5.455370e-01 
5.395151e-01 
5.348669e-01 
5.316293e-01 
5.298356e-01 
5.301328e-01 
5.325084e-01 
5.365718e-01 
5.421520e-01 
5.491603e-01 
5.575309e-01 
5.672016e-01 
5.781085e-01 
5.901871e-01 
6.033726e-01 
6.176015e-01 
6.328116e-01 
6.489432e-01 
6.659392e-01 
6.837443e-01 
7.023060e-01 
7.215759e-01 
7.415092e-01 
7.620639e-01 
7.832007e-01 
8.048830e-01 
8.270769e-01 
8.497507e-01 
8.728748e-01 
8.964218e-01 
9.203659e-01 
1.188210e+00 
1.161087e+00 
1.134155e+00 
1.107424e+00 
1.080908e+00 
1.054618e+00 
1.028570e+00 
1.002779e+00 
9.772621e-01 
9.520365e-01 
9.271218e-01 
9.025387e-01 
8.783098e-01 
8.544594e-01 
8.310138e-01 
8.080013e-01 
7.854517e-01 
7.633968e-01 
7.418706e-01 
7.209098e-01 
7.005539e-01 
6.808458e-01 
6.618311e-01 
6.435588e-01 
6.260806e-01 
6.094516e-01 
5.937294e-01 
5.789742e-01 
5.652478e-01 
5.526136e-01 
5.411354e-01 
5.308764e-01 
5.218975e-01 
5.142543e-01 
5.079966e-01 
5.031708e-01 
4.998177e-01 
4.979723e-01 
4.983502e-01 
5.008635e-01 
5.051114e-01 
5.109297e-01 
5.182292e-01 
5.269400e-01 
5.369932e-01 
5.483188e-01 
5.608457e-01 
5.745035e-01 
5.892231e-01 
6.049376e-01 
6.215828e-01 
6.390978e-01 
6.574240e-01 
6.765061e-01 
6.962933e-01 
7.167386e-01 
7.377985e-01 
7.594323e-01 
7.816025e-01 
8.042741e-01 
8.274149e-01 
8.509950e-01 
8.749866e-01 
8.993638e-01 
1.171880e+00 
1.144439e+00 
1.117177e+00 
1.090107e+00 
1.063240e+00 
1.036589e+00 
1.010168e+00 
9.839925e-01 
9.580781e-01 
9.324429e-01 
9.071059e-01 
8.820876e-01 
8.574105e-01 
8.330987e-01 
8.091786e-01 
7.856787e-01 
7.626296e-01 
7.400643e-01 
7.180178e-01 
6.965277e-01 
6.756348e-01 
6.553834e-01 
6.358213e-01 
6.169996e-01 
5.989734e-01 
5.818012e-01 
5.655447e-01 
5.502688e-01 
5.360407e-01 
5.229296e-01 
5.110057e-01 
5.003389e-01 
4.909967e-01 
4.830413e-01 
4.765289e-01 
4.715115e-01 
4.680346e-01 
4.661353e-01 
4.665830e-01 
4.692317e-01 
4.736752e-01 
4.797504e-01 
4.873658e-01 
4.964449e-01 
5.069115e-01 
5.186880e-01 
5.316962e-01 
5.458591e-01 
5.611015e-01 
5.773512e-01 
5.945394e-01 
6.126011e-01 
6.314738e-01 
6.510997e-01 
6.714256e-01 
6.924025e-01 
7.139851e-01 
7.361317e-01 
7.588037e-01 
7.819655e-01 
8.055843e-01 
8.296299e-01 
8.540743e-01 
8.788917e-01 
1.156103e+00 
1.128343e+00 
1.100755e+00 
1.073349e+00 
1.046134e+00 
1.019123e+00 
9.923301e-01 
9.657695e-01 
9.394575e-01 
9.134112e-01 
8.876495e-01 
8.621925e-01 
8.370625e-01 
8.122835e-01 
7.878815e-01 
7.638852e-01 
7.403254e-01 
7.172359e-01 
6.946528e-01 
6.726150e-01 
6.511644e-01 
6.303468e-01 
6.102119e-01 
5.908135e-01 
5.722096e-01 
5.544622e-01 
5.376377e-01 
5.218058e-01 
5.070398e-01 
4.934154e-01 
4.810101e-01 
4.699015e-01 
4.601652e-01 
4.518710e-01 
4.450821e-01 
4.398570e-01 
4.362468e-01 
4.342914e-01 
4.348246e-01 
4.376217e-01 
4.422781e-01 
4.486350e-01 
4.565960e-01 
4.660761e-01 
4.769900e-01 
4.892517e-01 
5.027752e-01 
5.174764e-01 
5.332736e-01 
5.500892e-01 
5.678492e-01 
5.864844e-01 
6.059286e-01 
6.261212e-01 
6.470067e-01 
6.685343e-01 
6.906570e-01 
7.133319e-01 
7.365194e-01 
7.601833e-01 
7.842906e-01 
8.088106e-01 
8.337155e-01 
8.589796e-01 
1.140890e+00 
1.112818e+00 
1.084908e+00 
1.057167e+00 
1.029607e+00 
1.002239e+00 
9.750758e-01 
9.481320e-01 
9.214229e-01 
8.949654e-01 
8.687777e-01 
8.428800e-01 
8.172938e-01 
7.920429e-01 
7.671533e-01 
7.426532e-01 
7.185736e-01 
6.949486e-01 
6.718149e-01 
6.492128e-01 
6.271854e-01 
6.057799e-01 
5.850479e-01 
5.650454e-01 
5.458336e-01 
5.274784e-01 
5.100507e-01 
4.936258e-01 
4.782836e-01 
4.641071e-01 
4.511819e-01 
4.395943e-01 
4.294292e-01 
4.207651e-01 
4.136738e-01 
4.082214e-01 
4.044659e-01 
4.024505e-01 
4.030703e-01 
4.060217e-01 
4.109076e-01 
4.175719e-01 
4.259099e-01 
4.358257e-01 
4.472234e-01 
4.600072e-01 
4.740825e-01 
4.893571e-01 
5.057426e-01 
5.231552e-01 
5.415159e-01 
5.607508e-01 
5.807901e-01 
6.015705e-01 
6.230342e-01 
6.451285e-01 
6.678049e-01 
6.910194e-01 
7.147316e-01 
7.389050e-01 
7.635061e-01 
7.885044e-01 
8.138720e-01 
8.395835e-01 
1.126264e+00 
1.097885e+00 
1.069657e+00 
1.041587e+00 
1.013685e+00 
9.859628e-01 
9.584328e-01 
9.311083e-01 
9.040040e-01 
8.771363e-01 
8.505230e-01 
8.241835e-01 
7.981391e-01 
7.724130e-01 
7.470309e-01 
7.220207e-01 
6.974132e-01 
6.732424e-01 
6.495454e-01 
6.263632e-01 
6.037402e-01 
5.817252e-01 
5.603714e-01 
5.397371e-01 
5.198865e-01 
5.008893e-01 
4.828212e-01 
4.657636e-01 
4.498033e-01 
4.350316e-01 
4.215433e-01 
4.094349e-01 
3.988018e-01 
3.897331e-01 
3.823106e-01 
3.766094e-01 
3.726954e-01 
3.706167e-01 
3.713242e-01 
3.744369e-01 
3.795726e-01 
3.865745e-01 
3.953260e-01 
4.057177e-01 
4.176410e-01 
4.309892e-01 
4.456576e-01 
4.615455e-01 
4.785569e-01 
4.966014e-01 
5.155945e-01 
5.354579e-01 
5.561181e-01 
5.775091e-01 
5.995709e-01 
6.222490e-01 
6.454937e-01 
6.692601e-01 
6.935073e-01 
7.181984e-01 
7.432996e-01 
7.687808e-01 
7.946142e-01 
8.207748e-01 
1.112248e+00 
1.083568e+00 
1.055028e+00 
1.026633e+00 
9.983943e-01 
9.703225e-01 
9.424293e-01 
9.147276e-01 
8.872314e-01 
8.599560e-01 
8.329186e-01 
8.061380e-01 
7.796349e-01 
7.534319e-01 
7.275541e-01 
7.020288e-01 
6.768867e-01 
6.521612e-01 
6.278896e-01 
6.041131e-01 
5.808770e-01 
5.582313e-01 
5.362311e-01 
5.149369e-01 
4.944156e-01 
4.747406e-01 
4.559927e-01 
4.382593e-01 
4.216351e-01 
4.062204e-01 
3.921207e-01 
3.794441e-01 
3.682984e-01 
3.587853e-01 
3.509982e-01 
3.450231e-01 
3.409359e-01 
3.387903e-01 
3.395854e-01 
3.428681e-01 
3.482773e-01 
3.556513e-01 
3.648576e-01 
3.757702e-01 
3.882663e-01 
4.022260e-01 
4.175337e-01 
4.340787e-01 
4.517567e-01 
4.704703e-01 
4.901296e-01 
5.106512e-01 
5.319586e-01 
5.539831e-01 
5.766627e-01 
5.999413e-01 
6.237683e-01 
6.480981e-01 
6.728894e-01 
6.981052e-01 
7.237120e-01 
7.496797e-01 
7.759812e-01 
8.025917e-01 
1.098860e+00 
1.069888e+00 
1.041041e+00 
1.012328e+00 
9.837594e-01 
9.553439e-01 
9.270932e-01 
8.990193e-01 
8.711356e-01 
8.434567e-01 
8.159987e-01 
7.887795e-01 
7.618191e-01 
7.351393e-01 
7.087644e-01 
6.827211e-01 
6.570394e-01 
6.317522e-01 
6.068965e-01 
5.825133e-01 
5.586483e-01 
5.353523e-01 
5.126818e-01 
4.906995e-01 
4.694749e-01 
4.490850e-01 
4.296154e-01 
4.111601e-01 
3.938219e-01 
3.777112e-01 
3.629456e-01 
3.496467e-01 
3.379370e-01 
3.279334e-01 
3.197433e-01 
3.134653e-01 
3.091874e-01 
3.069711e-01 
3.078532e-01 
3.113166e-01 
3.170273e-01 
3.248131e-01 
3.345209e-01 
3.460055e-01 
3.591272e-01 
3.737513e-01 
3.897491e-01 
4.069989e-01 
4.253874e-01 
4.448099e-01 
4.651703e-01 
4.863808e-01 
5.083618e-01 
5.310421e-01 
5.543581e-01 
5.782526e-01 
6.026743e-01 
6.275771e-01 
6.529200e-01 
6.786659e-01 
7.047818e-01 
7.312381e-01 
7.580081e-01 
7.850679e-01 
1.086116e+00 
1.056859e+00 
1.027715e+00 
9.986928e-01 
9.698014e-01 
9.410501e-01 
9.124493e-01 
8.840104e-01 
8.557458e-01 
8.276694e-01 
7.997964e-01 
7.721435e-01 
7.447296e-01 
7.175757e-01 
6.907049e-01 