# vtk DataFile Version 2.0 
Quadtree Mesh 
ASCII 
DATASET UNSTRUCTURED_GRID 
POINTS 4096 double 
-1.000000e+00 -1.000000e+00 0.000000e+00
-9.682540e-01 -1.000000e+00 0.000000e+00
-9.365079e-01 -1.000000e+00 0.000000e+00
-9.047619e-01 -1.000000e+00 0.000000e+00
-8.730159e-01 -1.000000e+00 0.000000e+00
-8.412698e-01 -1.000000e+00 0.000000e+00
-8.095238e-01 -1.000000e+00 0.000000e+00
-7.777778e-01 -1.000000e+00 0.000000e+00
-7.460317e-01 -1.000000e+00 0.000000e+00
-7.142857e-01 -1.000000e+00 0.000000e+00
-6.825397e-01 -1.000000e+00 0.000000e+00
-6.507937e-01 -1.000000e+00 0.000000e+00
-6.190476e-01 -1.000000e+00 0.000000e+00
-5.873016e-01 -1.000000e+00 0.000000e+00
-5.555556e-01 -1.000000e+00 0.000000e+00
-5.238095e-01 -1.000000e+00 0.000000e+00
-4.920635e-01 -1.000000e+00 0.000000e+00
-4.603175e-01 -1.000000e+00 0.000000e+00
-4.285714e-01 -1.000000e+00 0.000000e+00
-3.968254e-01 -1.000000e+00 0.000000e+00
-3.650794e-01 -1.000000e+00 0.000000e+00
-3.333333e-01 -1.000000e+00 0.000000e+00
-3.015873e-01 -1.000000e+00 0.000000e+00
-2.698413e-01 -1.000000e+00 0.000000e+00
-2.380952e-01 -1.000000e+00 0.000000e+00
-2.063492e-01 -1.000000e+00 0.000000e+00
-1.746032e-01 -1.000000e+00 0.000000e+00
-1.428571e-01 -1.000000e+00 0.000000e+00
-1.111111e-01 -1.000000e+00 0.000000e+00
-7.936508e-02 -1.000000e+00 0.000000e+00
-4.761905e-02 -1.000000e+00 0.000000e+00
-1.587302e-02 -1.000000e+00 0.000000e+00
1.587302e-02 -1.000000e+00 0.000000e+00
4.761905e-02 -1.000000e+00 0.000000e+00
7.936508e-02 -1.000000e+00 0.000000e+00
1.111111e-01 -1.000000e+00 0.000000e+00
1.428571e-01 -1.000000e+00 0.000000e+00
1.746032e-01 -1.000000e+00 0.000000e+00
2.063492e-01 -1.000000e+00 0.000000e+00
2.380952e-01 -1.000000e+00 0.000000e+00
2.698413e-01 -1.000000e+00 0.000000e+00
3.015873e-01 -1.000000e+00 0.000000e+00
3.333333e-01 -1.000000e+00 0.000000e+00
3.650794e-01 -1.000000e+00 0.000000e+00
3.968254e-01 -1.000000e+00 0.000000e+00
4.285714e-01 -1.000000e+00 0.000000e+00
4.603175e-01 -1.000000e+00 0.000000e+00
4.920635e-01 -1.000000e+00 0.000000e+00
5.238095e-01 -1.000000e+00 0.000000e+00
5.555556e-01 -1.000000e+00 0.000000e+00
5.873016e-01 -1.000000e+00 0.000000e+00
6.190476e-01 -1.000000e+00 0.000000e+00
6.507937e-01 -1.000000e+00 0.000000e+00
6.825397e-01 -1.000000e+00 0.000000e+00
7.142857e-01 -1.000000e+00 0.000000e+00
7.460317e-01 -1.000000e+00 0.000000e+00
7.777778e-01 -1.000000e+00 0.000000e+00
8.095238e-01 -1.000000e+00 0.000000e+00
8.412698e-01 -1.000000e+00 0.000000e+00
8.730159e-01 -1.000000e+00 0.000000e+00
9.047619e-01 -1.000000e+00 0.000000e+00
9.365079e-01 -1.000000e+00 0.000000e+00
9.682540e-01 -1.000000e+00 0.000000e+00
1.000000e+00 -1.000000e+00 0.000000e+00
-1.000000e+00 -9.682540e-01 0.000000e+00
-9.682540e-01 -9.682540e-01 0.000000e+00
-9.365079e-01 -9.682540e-01 0.000000e+00
-9.047619e-01 -9.682540e-01 0.000000e+00
-8.730159e-01 -9.682540e-01 0.000000e+00
-8.412698e-01 -9.682540e-01 0.000000e+00
-8.095238e-01 -9.682540e-01 0.000000e+00
-7.777778e-01 -9.682540e-01 0.000000e+00
-7.460317e-01 -9.682540e-01 0.000000e+00
-7.142857e-01 -9.682540e-01 0.000000e+00
-6.825397e-01 -9.682540e-01 0.000000e+00
-6.507937e-01 -9.682540e-01 0.000000e+00
-6.190476e-01 -9.682540e-01 0.000000e+00
-5.873016e-01 -9.682540e-01 0.000000e+00
-5.555556e-01 -9.682540e-01 0.000000e+00
-5.238095e-01 -9.682540e-01 0.000000e+00
-4.920635e-01 -9.682540e-01 0.000000e+00
-4.603175e-01 -9.682540e-01 0.000000e+00
-4.285714e-01 -9.682540e-01 0.000000e+00
-3.968254e-01 -9.682540e-01 0.000000e+00
-3.650794e-01 -9.682540e-01 0.000000e+00
-3.333333e-01 -9.682540e-01 0.000000e+00
-3.015873e-01 -9.682540e-01 0.000000e+00
-2.698413e-01 -9.682540e-01 0.000000e+00
-2.380952e-01 -9.682540e-01 0.000000e+00
-2.063492e-01 -9.682540e-01 0.000000e+00
-1.746032e-01 -9.682540e-01 0.000000e+00
-1.428571e-01 -9.682540e-01 0.000000e+00
-1.111111e-01 -9.682540e-01 0.000000e+00
-7.936508e-02 -9.682540e-01 0.000000e+00
-4.761905e-02 -9.682540e-01 0.000000e+00
-1.587302e-02 -9.682540e-01 0.000000e+00
1.587302e-02 -9.682540e-01 0.000000e+00
4.761905e-02 -9.682540e-01 0.000000e+00
7.936508e-02 -9.682540e-01 0.000000e+00
1.111111e-01 -9.682540e-01 0.000000e+00
1.428571e-01 -9.682540e-01 0.000000e+00
1.746032e-01 -9.682540e-01 0.000000e+00
2.063492e-01 -9.682540e-01 0.000000e+00
2.380952e-01 -9.682540e-01 0.000000e+00
2.698413e-01 -9.682540e-01 0.000000e+00
3.015873e-01 -9.682540e-01 0.000000e+00
3.333333e-01 -9.682540e-01 0.000000e+00
3.650794e-01 -9.682540e-01 0.000000e+00
3.968254e-01 -9.682540e-01 0.000000e+00
4.285714e-01 -9.682540e-01 0.000000e+00
4.603175e-01 -9.682540e-01 0.000000e+00
4.920635e-01 -9.682540e-01 0.000000e+00
5.238095e-01 -9.682540e-01 0.000000e+00
5.555556e-01 -9.682540e-01 0.000000e+00
5.873016e-01 -9.682540e-01 0.000000e+00
6.190476e-01 -9.682540e-01 0.000000e+00
6.507937e-01 -9.682540e-01 0.000000e+00
6.825397e-01 -9.682540e-01 0.000000e+00
7.142857e-01 -9.682540e-01 0.000000e+00
7.460317e-01 -9.682540e-01 0.000000e+00
7.777778e-01 -9.682540e-01 0.000000e+00
8.095238e-01 -9.682540e-01 0.000000e+00
8.412698e-01 -9.682540e-01 0.000000e+00
8.730159e-01 -9.682540e-01 0.000000e+00
9.047619e-01 -9.682540e-01 0.000000e+00
9.365079e-01 -9.682540e-01 0.000000e+00
9.682540e-01 -9.682540e-01 0.000000e+00
1.000000e+00 -9.682540e-01 0.000000e+00
-1.000000e+00 -9.365079e-01 0.000000e+00
-9.682540e-01 -9.365079e-01 0.000000e+00
-9.365079e-01 -9.365079e-01 0.000000e+00
-9.047619e-01 -9.365079e-01 0.000000e+00
-8.730159e-01 -9.365079e-01 0.000000e+00
-8.412698e-01 -9.365079e-01 0.000000e+00
-8.095238e-01 -9.365079e-01 0.000000e+00
-7.777778e-01 -9.365079e-01 0.000000e+00
-7.460317e-01 -9.365079e-01 0.000000e+00
-7.142857e-01 -9.365079e-01 0.000000e+00
-6.825397e-01 -9.365079e-01 0.000000e+00
-6.507937e-01 -9.365079e-01 0.000000e+00
-6.190476e-01 -9.365079e-01 0.000000e+00
-5.873016e-01 -9.365079e-01 0.000000e+00
-5.555556e-01 -9.365079e-01 0.000000e+00
-5.238095e-01 -9.365079e-01 0.000000e+00
-4.920635e-01 -9.365079e-01 0.000000e+00
-4.603175e-01 -9.365079e-01 0.000000e+00
-4.285714e-01 -9.365079e-01 0.000000e+00
-3.968254e-01 -9.365079e-01 0.000000e+00
-3.650794e-01 -9.365079e-01 0.000000e+00
-3.333333e-01 -9.365079e-01 0.000000e+00
-3.015873e-01 -9.365079e-01 0.000000e+00
-2.698413e-01 -9.365079e-01 0.000000e+00
-2.380952e-01 -9.365079e-01 0.000000e+00
-2.063492e-01 -9.365079e-01 0.000000e+00
-1.746032e-01 -9.365079e-01 0.000000e+00
-1.428571e-01 -9.365079e-01 0.000000e+00
-1.111111e-01 -9.365079e-01 0.000000e+00
-7.936508e-02 -9.365079e-01 0.000000e+00
-4.761905e-02 -9.365079e-01 0.000000e+00
-1.587302e-02 -9.365079e-01 0.000000e+00
1.587302e-02 -9.365079e-01 0.000000e+00
4.761905e-02 -9.365079e-01 0.000000e+00
7.936508e-02 -9.365079e-01 0.000000e+00
1.111111e-01 -9.365079e-01 0.000000e+00
1.428571e-01 -9.365079e-01 0.000000e+00
1.746032e-01 -9.365079e-01 0.000000e+00
2.063492e-01 -9.365079e-01 0.000000e+00
2.380952e-01 -9.365079e-01 0.000000e+00
2.698413e-01 -9.365079e-01 0.000000e+00
3.015873e-01 -9.365079e-01 0.000000e+00
3.333333e-01 -9.365079e-01 0.000000e+00
3.650794e-01 -9.365079e-01 0.000000e+00
3.968254e-01 -9.365079e-01 0.000000e+00
4.285714e-01 -9.365079e-01 0.000000e+00
4.603175e-01 -9.365079e-01 0.000000e+00
4.920635e-01 -9.365079e-01 0.000000e+00
5.238095e-01 -9.365079e-01 0.000000e+00
5.555556e-01 -9.365079e-01 0.000000e+00
5.873016e-01 -9.365079e-01 0.000000e+00
6.190476e-01 -9.365079e-01 0.000000e+00
6.507937e-01 -9.365079e-01 0.000000e+00
6.825397e-01 -9.365079e-01 0.000000e+00
7.142857e-01 -9.365079e-01 0.000000e+00
7.460317e-01 -9.365079e-01 0.000000e+00
7.777778e-01 -9.365079e-01 0.000000e+00
8.095238e-01 -9.365079e-01 0.000000e+00
8.412698e-01 -9.365079e-01 0.000000e+00
8.730159e-01 -9.365079e-01 0.000000e+00
9.047619e-01 -9.365079e-01 0.000000e+00
9.365079e-01 -9.365079e-01 0.000000e+00
9.682540e-01 -9.365079e-01 0.000000e+00
1.000000e+00 -9.365079e-01 0.000000e+00
-1.000000e+00 -9.047619e-01 0.000000e+00
-9.682540e-01 -9.047619e-01 0.000000e+00
-9.365079e-01 -9.047619e-01 0.000000e+00
-9.047619e-01 -9.047619e-01 0.000000e+00
-8.730159e-01 -9.047619e-01 0.000000e+00
-8.412698e-01 -9.047619e-01 0.000000e+00
-8.095238e-01 -9.047619e-01 0.000000e+00
-7.777778e-01 -9.047619e-01 0.000000e+00
-7.460317e-01 -9.047619e-01 0.000000e+00
-7.142857e-01 -9.047619e-01 0.000000e+00
-6.825397e-01 -9.047619e-01 0.000000e+00
-6.507937e-01 -9.047619e-01 0.000000e+00
-6.190476e-01 -9.047619e-01 0.000000e+00
-5.873016e-01 -9.047619e-01 0.000000e+00
-5.555556e-01 -9.047619e-01 0.000000e+00
-5.238095e-01 -9.047619e-01 0.000000e+00
-4.920635e-01 -9.047619e-01 0.000000e+00
-4.603175e-01 -9.047619e-01 0.000000e+00
-4.285714e-01 -9.047619e-01 0.000000e+00
-3.968254e-01 -9.047619e-01 0.000000e+00
-3.650794e-01 -9.047619e-01 0.000000e+00
-3.333333e-01 -9.047619e-01 0.000000e+00
-3.015873e-01 -9.047619e-01 0.000000e+00
-2.698413e-01 -9.047619e-01 0.000000e+00
-2.380952e-01 -9.047619e-01 0.000000e+00
-2.063492e-01 -9.047619e-01 0.000000e+00
-1.746032e-01 -9.047619e-01 0.000000e+00
-1.428571e-01 -9.047619e-01 0.000000e+00
-1.111111e-01 -9.047619e-01 0.000000e+00
-7.936508e-02 -9.047619e-01 0.000000e+00
-4.761905e-02 -9.047619e-01 0.000000e+00
-1.587302e-02 -9.047619e-01 0.000000e+00
1.587302e-02 -9.047619e-01 0.000000e+00
4.761905e-02 -9.047619e-01 0.000000e+00
7.936508e-02 -9.047619e-01 0.000000e+00
1.111111e-01 -9.047619e-01 0.000000e+00
1.428571e-01 -9.047619e-01 0.000000e+00
1.746032e-01 -9.047619e-01 0.000000e+00
2.063492e-01 -9.047619e-01 0.000000e+00
2.380952e-01 -9.047619e-01 0.000000e+00
2.698413e-01 -9.047619e-01 0.000000e+00
3.015873e-01 -9.047619e-01 0.000000e+00
3.333333e-01 -9.047619e-01 0.000000e+00
3.650794e-01 -9.047619e-01 0.000000e+00
3.968254e-01 -9.047619e-01 0.000000e+00
4.285714e-01 -9.047619e-01 0.000000e+00
4.603175e-01 -9.047619e-01 0.000000e+00
4.920635e-01 -9.047619e-01 0.000000e+00
5.238095e-01 -9.047619e-01 0.000000e+00
5.555556e-01 -9.047619e-01 0.000000e+00
5.873016e-01 -9.047619e-01 0.000000e+00
6.190476e-01 -9.047619e-01 0.000000e+00
[...]
POINT_DATA 4096 
SCALARS concentration double 1 
LOOKUP_TABLE default 
1.063691e+00 
1.039392e+00 
1.015350e+00 
9.916338e-01 
9.682736e-01 
9.452926e-01 
9.227138e-01 
9.005617e-01 
8.788622e-01 
8.576441e-01 
8.369387e-01 
8.167792e-01 
7.972001e-01 
7.782379e-01 
7.599310e-01 
7.423196e-01 
7.254464e-01 
7.093555e-01 
6.940936e-01 
6.797085e-01 
6.662500e-01 
6.537690e-01 
6.423169e-01 
6.319457e-01 
6.227068e-01 
6.146507e-01 
6.078269e-01 
6.022834e-01 
5.980700e-01 
5.952486e-01 
5.939432e-01 
5.950770e-01 
5.981286e-01 
6.027721e-01 
6.088691e-01 
6.163297e-01 
6.250809e-01 
6.350563e-01 
6.461922e-01 
6.584269e-01 
6.717003e-01 
6.859544e-01 
7.011329e-01 
7.171820e-01 
7.340502e-01 
7.516879e-01 
7.700462e-01 
7.890806e-01 
8.087504e-01 
8.290170e-01 
8.498447e-01 
8.711994e-01 
8.930496e-01 
9.153657e-01 
9.381197e-01 
9.612859e-01 
9.848399e-01 
1.008759e+00 
1.033022e+00 
1.057610e+00 
1.082503e+00 
1.107684e+00 
1.133137e+00 
1.158848e+00 
1.043416e+00 
1.018729e+00 
9.942903e-01 
9.701672e-01 
9.463904e-01 
9.229835e-01 
8.999699e-01 
8.773745e-01 
8.552237e-01 
8.335464e-01 
8.123745e-01 
7.917422e-01 
7.716855e-01 
7.522422e-01 
7.334525e-01 
7.153587e-01 
6.980055e-01 
6.814399e-01 
6.657114e-01 
6.508713e-01 
6.369732e-01 
6.240720e-01 
6.122238e-01 
6.014853e-01 
5.919131e-01 
5.835627e-01 
5.764888e-01 
5.707446e-01 
5.663845e-01 
5.634756e-01 
5.621523e-01 
5.633987e-01 
5.666121e-01 
5.714675e-01 
5.778253e-01 
5.855922e-01 
5.946905e-01 
6.050484e-01 
6.165969e-01 
6.292689e-01 
6.429996e-01 
6.577260e-01 
6.733881e-01 
6.899282e-01 
7.072917e-01 
7.254261e-01 
7.442799e-01 
7.638072e-01 
7.839653e-01 
8.047146e-01 
8.260179e-01 
8.478404e-01 
8.701498e-01 
8.929157e-01 
9.161099e-01 
9.397063e-01 
9.636803e-01 
9.880091e-01 
1.012671e+00 
1.037648e+00 
1.062919e+00 
1.088469e+00 
1.114281e+00 
1.140340e+00 
1.023632e+00 
9.985506e-01 
9.737078e-01 
9.491716e-01 
9.249717e-01 
9.011315e-01 
8.776746e-01 
8.546262e-01 
8.320133e-01 
8.098649e-01 
7.882132e-01 
7.670933e-01 
7.465425e-01 
7.266001e-01 
7.073079e-01 
6.887104e-01 
6.708546e-01 
6.537901e-01 
6.375697e-01 
6.222484e-01 
6.078837e-01 
5.945352e-01 
5.822639e-01 
5.711318e-01 
5.612013e-01 
5.525339e-01 
5.451900e-01 
5.392286e-01 
5.347097e-01 
5.317058e-01 
5.303629e-01 
5.317276e-01 
5.351129e-01 
5.401954e-01 
5.468337e-01 
5.549303e-01 
5.644017e-01 
5.751699e-01 
5.871596e-01 
6.002978e-01 
6.145141e-01 
6.297405e-01 
6.459126e-01 
6.629688e-01 
6.808511e-01 
6.995038e-01 
7.188735e-01 
7.389121e-01 
7.595756e-01 
7.808228e-01 
8.026155e-01 
8.249180e-01 
8.476974e-01 
8.709227e-01 
8.945656e-01 
9.185995e-01 
9.429998e-01 
9.677436e-01 
9.928098e-01 
1.018179e+00 
1.043832e+00 
1.069753e+00 
1.095925e+00 
1.122334e+00 
1.004358e+00 
9.788777e-01 
9.536278e-01 
9.286740e-01 
9.040452e-01 
8.797648e-01 
8.558566e-01 
8.323460e-01 
8.092604e-01 
7.866292e-01 
7.644846e-01 
7.428623e-01 
7.218007e-01 
7.013408e-01 
6.815260e-01 
6.624028e-01 
6.440205e-01 
6.264318e-01 
6.096926e-01 
5.938618e-01 
5.790014e-01 
5.651759e-01 
5.524518e-01 
5.408973e-01 
5.305809e-01 
5.215709e-01 
5.139346e-01 
5.077376e-01 
5.030461e-01 
4.999390e-01 
4.985747e-01 
5.000643e-01 
5.036325e-01 
5.089590e-01 
5.158997e-01 
5.243517e-01 
5.342247e-01 
5.454334e-01 
5.578953e-01 
5.715306e-01 
5.862627e-01 
6.020182e-01 
6.187278e-01 
6.363260e-01 
6.547513e-01 
6.739444e-01 
6.938500e-01 
7.144183e-01 
7.356036e-01 
7.573634e-01 
7.796586e-01 
8.024526e-01 
8.257120e-01 
8.494054e-01 
8.735043e-01 
8.979818e-01 
9.228135e-01 
9.479766e-01 
9.734498e-01 
9.992139e-01 
1.025251e+00 
1.051543e+00 
1.078076e+00 
1.104835e+00 
9.856179e-01 
9.597377e-01 
9.340778e-01 
9.087026e-01 
8.836401e-01 
8.589136e-01 
8.345469e-01 
8.105657e-01 
7.869973e-01 
7.638718e-01 
7.412214e-01 
7.190820e-01 
6.974932e-01 
6.764970e-01 
6.561388e-01 
6.364670e-01 
6.175334e-01 
5.993936e-01 
5.821070e-01 
5.657366e-01 
5.503490e-01 
5.360141e-01 
5.228048e-01 
5.107956e-01 
5.000625e-01 
4.906815e-01 
4.827276e-01 
4.762741e-01 
4.713945e-01 
4.681748e-01 
4.667873e-01 
4.684091e-01 
4.721731e-01 
4.777628e-01 
4.850308e-01 
4.938673e-01 
5.041740e-01 
5.158569e-01 
5.288250e-01 
5.429910e-01 
5.582715e-01 
5.745872e-01 
5.918636e-01 
6.100309e-01 
6.290238e-01 
6.487799e-01 
6.692419e-01 
6.903582e-01 
7.120815e-01 
7.343683e-01 
7.571783e-01 
7.804747e-01 
8.042232e-01 
8.283925e-01 
8.529538e-01 
8.778803e-01 
9.031475e-01 
9.287328e-01 
9.546154e-01 
9.807760e-01 
1.007197e+00 
1.033861e+00 
1.060755e+00 
1.087862e+00 
9.674400e-01 
9.411589e-01 
9.150872e-01 
8.892876e-01 
8.637875e-01 
8.386099e-01 
8.137785e-01 
7.893189e-01 
7.652586e-01 
7.416279e-01 
7.184593e-01 
6.957887e-01 
6.736561e-01 
6.521049e-01 
6.311821e-01 
6.109381e-01 
5.914273e-01 
5.727082e-01 
5.548437e-01 
5.379013e-01 
5.219526e-01 
5.070732e-01 
4.933427e-01 
4.808433e-01 
4.696590e-01 
4.598749e-01 
4.515749e-01 
4.448413e-01 
4.397560e-01 
4.364132e-01 
4.350005e-01 
4.367624e-01 
4.407367e-01 
4.466117e-01 
4.542354e-01 
4.634897e-01 
4.742662e-01 
4.864606e-01 
4.999725e-01 
5.147061e-01 
5.305702e-01 
5.474793e-01 
5.653534e-01 
5.841180e-01 
6.037043e-01 
6.240465e-01 
6.450855e-01 
6.667679e-01 
6.890451e-01 
7.118726e-01 
7.352093e-01 
7.590179e-01 
7.832639e-01 
8.079159e-01 
8.329450e-01 
8.583246e-01 
8.840304e-01 
9.100401e-01 
9.363332e-01 
9.628907e-01 
9.896954e-01 
1.016731e+00 
1.043983e+00 
1.071438e+00 
9.498542e-01 
9.231696e-01 
8.966845e-01 
8.704587e-01 
8.445183e-01 
8.188857e-01 
7.935843e-01 
7.686395e-01 
7.440791e-01 
7.199331e-01 
6.962344e-01 
6.730190e-01 
6.503268e-01 
6.282022e-01 
6.066937e-01 
5.858537e-01 
5.657390e-01 
5.464112e-01 
5.279369e-01 
5.103881e-01 
4.938416e-01 
4.783796e-01 
4.640887e-01 
4.510596e-01 
4.393858e-01 
4.291624e-01 
4.204841e-01 
4.134435e-01 
4.081324e-01 
4.046544e-01 
4.032141e-01 
4.051244e-01 
4.093252e-01 
4.155110e-01 
4.235232e-01 
4.332330e-01 
4.445198e-01 
4.572676e-01 
4.713649e-01 
4.867061e-01 
5.031920e-01 
5.207299e-01 
5.392342e-01 
5.586258e-01 
5.788317e-01 
5.997834e-01 
6.214200e-01 
6.436865e-01 
6.665330e-01 
6.899142e-01 
7.137887e-01 
7.381185e-01 
7.628693e-01 
7.880096e-01 
8.135108e-01 
8.393465e-01 
8.654928e-01 
8.919278e-01 
9.186313e-01 
9.455850e-01 
9.727720e-01 
1.000177e+00 
1.027785e+00 
1.055584e+00 
9.328731e-01 
9.057823e-01 
8.788843e-01 
8.522325e-01 
8.258509e-01 
7.997613e-01 
7.739867e-01 
7.485523e-01 
7.234853e-01 
6.988160e-01 
6.745770e-01 
6.508045e-01 
6.275383e-01 
6.048233e-01 
5.827092e-01 
5.612502e-01 
5.405054e-01 
5.205394e-01 
5.014227e-01 
4.832316e-01 
4.660488e-01 
4.499631e-01 
4.350690e-01 
4.214668e-01 
4.092606e-01 
3.985574e-01 
3.894641e-01 
3.820858e-01 
3.765260e-01 
3.728991e-01 
3.714287e-01 
3.734949e-01 
3.779407e-01 
3.844666e-01 
3.929049e-01 
4.031133e-01 
4.149563e-01 
4.283038e-01 
4.430320e-01 
4.590244e-01 
4.761728e-01 
4.943770e-01 
5.135455e-01 
5.335943e-01 
5.544464e-01 
5.760311e-01 
5.982854e-01 
6.211532e-01 
6.445837e-01 
6.685307e-01 
6.929525e-01 
7.178114e-01 
7.430729e-01 
7.687059e-01 
7.946820e-01 
8.209754e-01 
8.475627e-01 
8.744225e-01 
9.015352e-01 
9.288830e-01 
9.564497e-01 
9.842202e-01 
1.012181e+00 
1.040319e+00 
9.164632e-01 
8.889887e-01 
8.616865e-01 
8.346141e-01 
8.077954e-01 
7.812516e-01 
7.550052e-01 
7.290809e-01 
7.035055e-01 
6.783089e-01 
6.535235e-01 
6.291853e-01 
6.053342e-01 
5.820150e-01 
5.592781e-01 
5.371793e-01 
5.157798e-01 
4.951472e-01 
4.753554e-01 
4.564855e-01 
4.386259e-01 
4.218725e-01 
4.063288e-01 
3.921051e-01 
3.793182e-01 
3.680886e-01 
3.585377e-01 
3.507853e-01 
3.449487e-01 
3.411553e-01 
3.396522e-01 
3.418625e-01 
3.465708e-01 
3.534693e-01 
3.623765e-01 
3.731320e-01 
3.855826e-01 
3.995817e-01 
4.149911e-01 
4.316823e-01 
4.495370e-01 
4.684474e-01 
4.883157e-01 
5.090531e-01 
5.305786e-01 
5.528193e-01 
5.757110e-01 
5.991964e-01 
6.232241e-01 
6.477476e-01 
6.727252e-01 
6.981193e-01 
7.238958e-01 
7.500240e-01 
7.764762e-01 
8.032272e-01 
8.302541e-01 
8.575363e-01 
8.850549e-01 
9.127929e-01 
9.407345e-01 
9.688656e-01 
9.971731e-01 
1.025645e+00 
9.008058e-01 
8.729376e-01 
8.452302e-01 
8.177362e-01 
7.904785e-01 
7.634777e-01 
7.367556e-01 
7.103361e-01 
6.842454e-01 
6.585127e-01 
6.331699e-01 
6.082528e-01 
5.838009e-01 
5.598588e-01 
5.364770e-01 
5.137124e-01 
4.916284e-01 
4.702950e-01 
4.497897e-01 
4.301981e-01 
4.116142e-01 
3.941416e-01 
3.778930e-01 
3.629910e-01 
3.495662e-01 
3.377553e-01 
3.276971e-01 
3.195289e-01 
3.133847e-01 
3.094077e-01 
3.078692e-01 
3.102500e-01 
3.152517e-01 
3.225661e-01 
3.319945e-01 
3.433547e-01 
3.564720e-01 
3.711803e-01 
3.873252e-01 
4.047650e-01 
4.233708e-01 
4.430267e-01 
4.636287e-01 
4.850832e-01 
5.073055e-01 
5.302216e-01 
5.537659e-01 
5.778807e-01 
6.025139e-01 
6.276194e-01 
6.531555e-01 
6.790852e-01 
7.053751e-01 
7.319951e-01 
7.589183e-01 
7.861202e-01 
8.135790e-01 
8.412747e-01 
8.691894e-01 
8.973068e-01 
9.256119e-01 
9.540913e-01 
9.827328e-01 
1.011525e+00 
8.858649e-01 
8.576113e-01 
8.295037e-01 
8.015925e-01 
7.738997e-01 
7.464448e-01 
7.192485e-01 
6.923339e-01 
6.657263e-01 
6.394539e-01 
6.135479e-01 
5.880433e-01 
5.629791e-01 
5.383996e-01 
5.143550e-01 
4.909027e-01 
4.681075e-01 
4.460417e-01 
4.247859e-01 
4.044297e-01 
3.850730e-01 
3.668269e-01 
3.498147e-01 
3.341719e-01 
3.200456e-01 
3.075911e-01 
2.969680e-01 
2.883349e-01 
2.818463e-01 
2.776641e-01 
2.760874e-01 
2.786483e-01 
2.839750e-01 
2.917552e-01 
3.017668e-01 
3.137996e-01 
3.276523e-01 
3.431364e-01 
3.600792e-01 
3.783242e-01 
3.977318e-01 
4.181777e-01 
4.395518e-01 
4.617559e-01 
4.847031e-01 
5.083178e-01 
5.325342e-01 
5.572939e-01 
5.825453e-01 
6.082424e-01 
6.343445e-01 
6.608152e-01 
6.876220e-01 
7.147360e-01 
7.421310e-01 
7.697838e-01 
7.976734e-01 
8.257810e-01 
8.540894e-01 
8.825833e-01 
9.112487e-01 
9.400729e-01 
9.690445e-01 
9.981529e-01 
8.716633e-01 
8.430326e-01 
8.145328e-01 
7.862120e-01 
7.580907e-01 
7.301875e-01 
7.025218e-01 
6.751155e-01 
6.479927e-01 
6.211804e-01 
5.947085e-01 
5.686111e-01 
5.429264e-01 
5.176980e-01 
4.929756e-01 
4.688162e-01 
4.452854e-01 
4.224570e-01 
4.004140e-01 
3.792495e-01 
3.590689e-01 
3.399912e-01 
3.221506e-01 
3.056973e-01 
2.907967e-01 
2.776264e-01 
2.663709e-01 
2.572147e-01 
2.503377e-01 
2.459249e-01 
2.443071e-01 
2.470583e-01 
2.527482e-01 
2.610543e-01 
2.717219e-01 
2.845053e-01 
2.991711e-01 
3.155044e-01 
3.333117e-01 
3.524213e-01 
3.726821e-01 
3.939616e-01 
4.161442e-01 
4.391278e-01 
4.628239e-01 
4.871566e-01 
5.120597e-01 
5.374751e-01 
5.633518e-01 
5.896449e-01 
6.163147e-01 
6.433261e-01 
6.706478e-01 
6.982521e-01 
7.261144e-01 
7.542124e-01 
7.825266e-01 
8.110391e-01 
8.397341e-01 
8.685970e-01 
8.976149e-01 
9.267762e-01 
9.560701e-01 
9.854870e-01 
8.582349e-01 
8.292384e-01 
8.003568e-01 
7.716363e-01 
7.430961e-01 
7.147531e-01 
6.866257e-01 
6.587341e-01 
6.311010e-01 
6.037517e-01 
5.767147e-01 
5.500226e-01 
5.237124e-01 
4.978267e-01 
4.724143e-01 
4.475314e-01 
4.232429e-01 
3.996232e-01 
3.767567e-01 
3.547394e-01 
3.336815e-01 
3.137096e-01 
2.949695e-01 
2.776275e-01 
2.618697e-01 
2.478993e-01 
2.359311e-01 
2.261823e-01 
2.188640e-01 
2.141907e-01 
2.125289e-01 
2.154812e-01 
2.215814e-01 
2.304866e-01 
2.418979e-01 
2.555238e-01 
2.710918e-01 
2.883562e-01 
3.071008e-01 
3.271377e-01 
3.483044e-01 
3.704613e-01 
3.934874e-01 
4.172783e-01 
4.417451e-01 
4.668118e-01 
4.924127e-01 
5.184908e-01 
5.449964e-01 
5.718860e-01 
5.991216e-01 
6.266696e-01 
6.545006e-01 
6.825882e-01 
7.109095e-01 
7.394438e-01 
7.681728e-01 
7.970801e-01 
8.261509e-01 
8.553721e-01 
8.847320e-01 
9.142196e-01 
9.438252e-01 
9.735400e-01 
8.456172e-01 
8.162684e-01 
7.870179e-01 
7.579102e-01 
7.289631e-01 
7.001920e-01 
6.716136e-01 
6.432465e-01 
6.151114e-01 
5.872316e-01 
5.596340e-01 
5.323492e-01 
5.054125e-01 
4.788651e-01 
4.527544e-01 
4.271351e-01 
4.020704e-01 
3.776335e-01 
3.539089e-01 
3.309944e-01 
3.090041e-01 
2.880720e-01 
2.683556e-01 
2.500376e-01 
2.333272e-01 
2.184579e-01 
2.056814e-01 
1.952556e-01 
1.874319e-01 
1.824621e-01 
1.807533e-01 
1.839180e-01 
1.904876e-01 
2.000827e-01 
2.123444e-01 
2.269214e-01 
2.434937e-01 
2.617804e-01 
2.815408e-01 
3.025705e-01 
3.246968e-01 
3.477733e-01 
3.716756e-01 
3.962984e-01 
4.215535e-01 
4.473659e-01 
4.736714e-01 
5.004148e-01 
5.275484e-01 
5.550308e-01 
5.828262e-01 
6.109030e-01 
6.392339e-01 
6.677944e-01 
6.965634e-01 
7.255219e-01 
7.546532e-01 
7.839423e-01 
8.133759e-01 
8.429422e-01 
8.726304e-01 
9.024310e-01 
9.323353e-01 
9.623354e-01 
8.338527e-01 
8.041649e-01 
7.745600e-01 
7.450801e-01 
7.157408e-01 
6.865560e-01 
6.575405e-01 
6.287108e-01 
6.000856e-01 
5.716860e-01 
5.435364e-01 
5.156655e-01 
4.881063e-01 
4.608980e-01 
4.340857e-01 
4.077218e-01 
3.818667e-01 
3.565909e-01 
3.319770e-01 
3.081231e-01 
2.851461e-01 
2.631862e-01 
2.424112e-01 
2.230207e-01 
2.052488e-01 
1.893641e-01 
1.756637e-01 
1.644578e-01 
1.560497e-01 
1.507396e-01 
1.489813e-01 
1.523702e-01 
1.594841e-01 
1.698835e-01 
1.831261e-01 
1.987835e-01 
2.164771e-01 
2.358868e-01 
2.567463e-01 
2.788356e-01 
3.019731e-01 
3.260080e-01 
3.508144e-01 
3.762886e-01 
4.023441e-01 
4.289083e-01 
4.559195e-01 
4.833254e-01 
5.110810e-01 
5.391478e-01 
5.674924e-01 
5.960862e-01 
6.249037e-01 
6.539232e-01 
6.831252e-01 
7.124928e-01 
7.420110e-01 
7.716664e-01 
8.014474e-01 
8.313432e-01 
8.613445e-01 
8.914428e-01 
9.216306e-01 
9.519009e-01 
8.229672e-01 
7.929494e-01 
7.630062e-01 
7.331715e-01 
7.034579e-01 
6.738774e-01 
6.444426e-01 
6.151679e-01 
5.860695e-01 
5.571660e-01 
5.284794e-01 
5.000355e-01 
4.718651e-01 
4.440041e-01 
4.164945e-01 
3.893853e-01 
3.627329e-01 
3.366036e-01 
3.110763e-01 
2.862472e-01 
2.622337e-01 
2.391797e-01 
2.172616e-01 
1.966940e-01 
1.777368e-01 
1.606986e-01 
1.459337e-01 
1.338196e-01 
1.247282e-01 
1.190244e-01 
1.172140e-01 
1.208388e-01 
1.285945e-01 
1.399442e-01 
1.543302e-01 
1.712215e-01 
1.901695e-01 
2.108110e-01 
2.328549e-01 
2.560682e-01 
2.802634e-01 
3.052885e-01 
3.310198e-01 
3.573568e-01 
3.842169e-01 
4.115311e-01 
4.392418e-01 
4.673004e-01 
4.956657e-01 
5.243026e-01 
5.531809e-01 
5.822748e-01 
6.115617e-01 
6.410223e-01 
6.706393e-01 
7.003979e-01 
7.302850e-01 
7.602890e-01 
7.903996e-01 
8.206077e-01 
8.509051e-01 
8.812847e-01 
9.117398e-01 
9.422645e-01 
8.128637e-01 
7.825604e-01 
7.523063e-01 
7.221427e-01 
6.920810e-01 
6.621311e-01 
6.323039e-01 
6.026113e-01 
5.730668e-01 
5.436864e-01 
5.144890e-01 
4.854974e-01 
4.567388e-01 
4.282454e-01 
4.000551e-01 
3.722120e-01 
3.447678e-01 
3.177834e-01 
2.913322e-01 
2.655053e-01 
2.404172e-01 
2.162113e-01 
1.930679e-01 
1.712132e-01 
1.509313e-01 
1.325755e-01 
1.165721e-01 
1.033863e-01 
9.348429e-02 
8.731893e-02 
8.545463e-02 
8.932124e-02 
9.784470e-02 
1.103346e-01 
1.260695e-01 
1.443787e-01 
1.647309e-01 
1.867192e-01 
2.100316e-01 
2.344275e-01 
2.597183e-01 
2.857556e-01 
3.124217e-01 
3.396220e-01 
3.672799e-01 
3.953321e-01 
4.237263e-01 
4.524189e-01 
4.813733e-01 
5.105582e-01 
5.399475e-01 
5.695184e-01 
5.992516e-01 
6.291301e-01 
6.591395e-01 
6.892670e-01 
7.195013e-01 
7.498328e-01 
7.802527e-01 
8.107533e-01 
8.413279e-01 
8.719704e-01 
9.026753e-01 
9.334377e-01 
8.038110e-01 
7.732223e-01 
7.426740e-01 
7.121996e-01 
6.818088e-01 
6.515098e-01 
6.213112e-01 
5.912226e-01 
5.612552e-01 
5.314218e-01 
5.017383e-01 
4.722237e-01 
4.429011e-01 
4.137981e-01 
3.849474e-01 
3.563870e-01 
3.281618e-01 
3.003258e-01 
2.729453e-01 
2.461040e-01 
2.199088e-01 
1.944971e-01 
1.700464e-01 
1.467869e-01 
1.250212e-01 
1.051503e-01 
8.769399e-02 
7.321291e-02 
6.233239e-02 
5.561970e-02 
5.369855e-02 
5.782699e-02 
6.729893e-02 
8.118604e-02 
9.853377e-02 
1.184768e-01 
1.403933e-01 
1.638394e-01 
1.884924e-01 
2.141128e-01 
2.405193e-01 
2.675733e-01 
2.951669e-01 
3.232145e-01 
3.516478e-01 
3.804109e-01 
4.094585e-01 
4.387527e-01 
4.682622e-01 
4.979606e-01 
5.278258e-01 
5.578386e-01 
5.879829e-01 
6.182447e-01 
6.486119e-01 
6.790742e-01 
7.096222e-01 
7.402480e-01 
7.709446e-01 
8.017057e-01 
8.325258e-01 
8.634000e-01 
8.943240e-01 
9.252938e-01 
7.957807e-01 
7.649368e-01 
7.341192e-01 
7.033598e-01 
6.726667e-01 
6.420463e-01 
6.115051e-01 
5.810504e-01 
5.506906e-01 
5.204359e-01 
4.902985e-01 
4.602940e-01 
4.304409e-01 
4.007615e-01 
3.712822e-01 
3.420340e-01 
3.130541e-01 
2.843880e-01 
2.560930e-01 
2.282422e-01 
2.009304e-01 
1.742813e-01 
1.484596e-01 
1.236866e-01 
1.002704e-01 
7.865767e-02 
5.948967e-02 
4.338684e-02 
3.130054e-02 
2.392901e-02 
2.194888e-02 
2.635618e-02 
3.702351e-02 
5.266493e-02 
7.197500e-02 
9.380442e-02 
1.174505e-01 
1.424551e-01 
1.685036e-01 
1.953723e-01 
2.228977e-01 
2.509573e-01 
2.794575e-01 
3.083254e-01 
3.375029e-01 
3.669438e-01 
3.966103e-01 
4.264717e-01 
4.565024e-01 
4.866811e-01 
5.169899e-01 
5.474138e-01 
5.779397e-01 
6.085566e-01 
6.392550e-01 
6.700267e-01 
7.008644e-01 
7.317618e-01 
7.627136e-01 
7.937148e-01 
8.247612e-01 
8.558489e-01 
8.869745e-01 
9.181351e-01 
7.887782e-01 
7.577038e-01 
7.266436e-01 
6.956275e-01 
6.646622e-01 
6.337523e-01 
6.029023e-01 
5.721172e-01 
5.414031e-01 
5.107672e-01 
4.802186e-01 
4.497687e-01 
4.194312e-01 
3.892227e-01 
3.591628e-01 
3.292748e-01 
2.995875e-01 
2.701369e-01 
2.409690e-01 
2.121436e-01 
1.837383e-01 
1.558562e-01 
1.286362e-01 
1.022724e-01 
7.705086e-02 
5.343112e-02 
3.223521e-02 
1.403253e-02 
4.767001e-04 
-7.671751e-03 
-9.685240e-03 
-4.657574e-03 
7.133873e-03 
2.505083e-02 
4.679326e-02 
7.077340e-02 
9.628513e-02 
1.229066e-01 
1.503623e-01 
1.784631e-01 
2.070741e-01 
2.360958e-01 
2.654533e-01 
2.950890e-01 
3.249575e-01 
3.550231e-01 
3.852568e-01 
4.156350e-01 
4.461385e-01 
4.767513e-01 
5.074598e-01 
5.382529e-01 
5.691207e-01 
6.000552e-01 
6.310492e-01 
6.620967e-01 
6.931923e-01 
7.243314e-01 
7.555100e-01 
7.867245e-01 
8.179718e-01 
8.492491e-01 
8.805539e-01 
9.118840e-01 
7.828534e-01 
7.515755e-01 
7.203003e-01 
6.890573e-01 
6.578514e-01 
6.266857e-01 
5.955631e-01 
5.644867e-01 
5.334605e-01 
5.024890e-01 
4.715783e-01 
4.407356e-01 
4.099700e-01 
3.792921e-01 
3.487145e-01 
3.182532e-01 
2.879280e-01 
2.577647e-01 
2.277966e-01 
1.980674e-01 
1.686346e-01 
1.395746e-01 
1.109911e-01 
8.302912e-02 
5.589566e-02 
2.989252e-02 
6.316041e-03 
-1.355303e-02 
-2.840442e-02 
-3.795003e-02 
-4.057820e-02 
-3.337815e-02 
-1.986432e-02 
-4.218078e-04 
2.366648e-02 
4.998279e-02 
7.740361e-02 
1.056188e-01 
1.344262e-01 
1.636876e-01 
1.933053e-01 
2.232080e-01 
2.533423e-01 
2.836676e-01 
3.141523e-01 
3.447714e-01 
3.755050e-01 
4.063369e-01 
4.372537e-01 
4.682447e-01 
4.993005e-01 
5.304134e-01 
5.615770e-01 
5.927856e-01 
6.240345e-01 
6.553194e-01 
6.866367e-01 
7.179834e-01 
7.493567e-01 
7.807542e-01 
8.121737e-01 
8.436134e-01 
8.750715e-01 
9.065467e-01 
7.780601e-01 
7.466066e-01 
7.151449e-01 
6.837050e-01 
6.522909e-01 
6.209046e-01 
5.895475e-01 
5.582216e-01 
5.269289e-01 
4.956722e-01 
4.644546e-01 
4.332799e-01 
4.021526e-01 
3.710777e-01 
3.400618e-01 
3.091134e-01 
2.782440e-01 
2.474689e-01 
2.168087e-01 
1.862901e-01 
1.559487e-01 
1.258328e-01 
9.601043e-02 
6.658113e-02 
3.769787e-02 
9.612578e-03 
-1.593003e-02 
-3.716673e-02 
-5.480588e-02 
-6.718106e-02 
-7.054512e-02 
-6.025499e-02 
-4.338400e-02 
-2.207340e-02 
3.725541e-03 
3.223928e-02 
6.142031e-02 
9.107752e-02 
1.210878e-01 
1.513677e-01 
1.818585e-01 
2.125177e-01 
2.433138e-01 
2.742228e-01 
3.052261e-01 
3.363092e-01 
3.674602e-01 
3.986696e-01 
4.299298e-01 
4.612341e-01 
4.925772e-01 
5.239545e-01 
5.553622e-01 
5.867968e-01 
6.182555e-01 
6.497359e-01 
6.812357e-01 
7.127530e-01 
7.442863e-01 
7.758339e-01 
8.073948e-01 
8.389676e-01 
8.705515e-01 
9.021454e-01 
7.744733e-01 
7.428735e-01 
7.112530e-01 
6.796459e-01 
6.480557e-01 
6.164838e-01 
5.849308e-01 
5.533979e-01 
5.218863e-01 
4.903973e-01 
4.589321e-01 
4.274919e-01 
3.960773e-01 
3.646893e-01 