# vtk DataFile Version 2.0 
Quadtree Mesh 
ASCII 
DATASET UNSTRUCTURED_GRID 
POINTS 4096 double 
-1.000000e+00 -1.000000e+00 0.000000e+00
-9.682540e-01 -1.000000e+00 0.000000e+00
-9.365079e-01 -1.000000e+00 0.000000e+00
-9.047619e-01 -1.000000e+00 0.000000e+00
-8.730159e-01 -1.000000e+00 0.000000e+00
-8.412698e-01 -1.000000e+00 0.000000e+00
-8.095238e-01 -1.000000e+00 0.000000e+00
-7.777778e-01 -1.000000e+00 0.000000e+00
-7.460317e-01 -1.000000e+00 0.000000e+00
-7.142857e-01 -1.000000e+00 0.000000e+00
-6.825397e-01 -1.000000e+00 0.000000e+00
-6.507937e-01 -1.000000e+00 0.000000e+00
-6.190476e-01 -1.000000e+00 0.000000e+00
-5.873016e-01 -1.000000e+00 0.000000e+00
-5.555556e-01 -1.000000e+00 0.000000e+00
-5.238095e-01 -1.000000e+00 0.000000e+00
-4.920635e-01 -1.000000e+00 0.000000e+00
-4.603175e-01 -1.000000e+00 0.000000e+00
-4.285714e-01 -1.000000e+00 0.000000e+00
-3.968254e-01 -1.000000e+00 0.000000e+00
-3.650794e-01 -1.000000e+00 0.000000e+00
-3.333333e-01 -1.000000e+00 0.000000e+00
-3.015873e-01 -1.000000e+00 0.000000e+00
-2.698413e-01 -1.000000e+00 0.000000e+00
-2.380952e-01 -1.000000e+00 0.000000e+00
-2.063492e-01 -1.000000e+00 0.000000e+00
-1.746032e-01 -1.000000e+00 0.000000e+00
-1.428571e-01 -1.000000e+00 0.000000e+00
-1.111111e-01 -1.000000e+00 0.000000e+00
-7.936508e-02 -1.000000e+00 0.000000e+00
-4.761905e-02 -1.000000e+00 0.000000e+00
-1.587302e-02 -1.000000e+00 0.000000e+00
1.587302e-02 -1.000000e+00 0.000000e+00
4.761905e-02 -1.000000e+00 0.000000e+00
7.936508e-02 -1.000000e+00 0.000000e+00
1.111111e-01 -1.000000e+00 0.000000e+00
1.428571e-01 -1.000000e+00 0.000000e+00
1.746032e-01 -1.000000e+00 0.000000e+00
2.063492e-01 -1.000000e+00 0.000000e+00
2.380952e-01 -1.000000e+00 0.000000e+00
2.698413e-01 -1.000000e+00 0.000000e+00
3.015873e-01 -1.000000e+00 0.000000e+00
3.333333e-01 -1.000000e+00 0.000000e+00
3.650794e-01 -1.000000e+00 0.000000e+00
3.968254e-01 -1.000000e+00 0.000000e+00
4.285714e-01 -1.000000e+00 0.000000e+00
4.603175e-01 -1.000000e+00 0.000000e+00
4.920635e-01 -1.000000e+00 0.000000e+00
5.238095e-01 -1.000000e+00 0.000000e+00
5.555556e-01 -1.000000e+00 0.000000e+00
5.873016e-01 -1.000000e+00 0.000000e+00
6.190476e-01 -1.000000e+00 0.000000e+00
6.507937e-01 -1.000000e+00 0.000000e+00
6.825397e-01 -1.000000e+00 0.000000e+00
7.142857e-01 -1.000000e+00 0.000000e+00
7.460317e-01 -1.000000e+00 0.000000e+00
7.777778e-01 -1.000000e+00 0.000000e+00
8.095238e-01 -1.000000e+00 0.000000e+00
8.412698e-01 -1.000000e+00 0.000000e+00
8.730159e-01 -1.000000e+00 0.000000e+00
9.047619e-01 -1.000000e+00 0.000000e+00
9.365079e-01 -1.000000e+00 0.000000e+00
9.682540e-01 -1.000000e+00 0.000000e+00
1.000000e+00 -1.000000e+00 0.000000e+00
-1.000000e+00 -9.682540e-01 0.000000e+00
-9.682540e-01 -9.682540e-01 0.000000e+00
-9.365079e-01 -9.682540e-01 0.000000e+00
-9.047619e-01 -9.682540e-01 0.000000e+00
-8.730159e-01 -9.682540e-01 0.000000e+00
-8.412698e-01 -9.682540e-01 0.000000e+00
-8.095238e-01 -9.682540e-01 0.000000e+00
-7.777778e-01 -9.682540e-01 0.000000e+00
-7.460317e-01 -9.682540e-01 0.000000e+00
-7.142857e-01 -9.682540e-01 0.000000e+00
-6.825397e-01 -9.682540e-01 0.000000e+00
-6.507937e-01 -9.682540e-01 0.000000e+00
-6.190476e-01 -9.682540e-01 0.000000e+00
-5.873016e-01 -9.682540e-01 0.000000e+00
-5.555556e-01 -9.682540e-01 0.000000e+00
-5.238095e-01 -9.682540e-01 0.000000e+00
-4.920635e-01 -9.682540e-01 0.000000e+00
-4.603175e-01 -9.682540e-01 0.000000e+00
-4.285714e-01 -9.682540e-01 0.000000e+00
-3.968254e-01 -9.682540e-01 0.000000e+00
-3.650794e-01 -9.682540e-01 0.000000e+00
-3.333333e-01 -9.682540e-01 0.000000e+00
-3.015873e-01 -9.682540e-01 0.000000e+00
-2.698413e-01 -9.682540e-01 0.000000e+00
-2.380952e-01 -9.682540e-01 0.000000e+00
-2.063492e-01 -9.682540e-01 0.000000e+00
-1.746032e-01 -9.682540e-01 0.000000e+00
-1.428571e-01 -9.682540e-01 0.000000e+00
-1.111111e-01 -9.682540e-01 0.000000e+00
-7.936508e-02 -9.682540e-01 0.000000e+00
-4.761905e-02 -9.682540e-01 0.000000e+00
-1.587302e-02 -9.682540e-01 0.000000e+00
1.587302e-02 -9.682540e-01 0.000000e+00
4.761905e-02 -9.682540e-01 0.000000e+00
7.936508e-02 -9.682540e-01 0.000000e+00
1.111111e-01 -9.682540e-01 0.000000e+00
1.428571e-01 -9.682540e-01 0.000000e+00
1.746032e-01 -9.682540e-01 0.000000e+00
2.063492e-01 -9.682540e-01 0.000000e+00
2.380952e-01 -9.682540e-01 0.000000e+00
2.698413e-01 -9.682540e-01 0.000000e+00
3.015873e-01 -9.682540e-01 0.000000e+00
3.333333e-01 -9.682540e-01 0.000000e+00
3.650794e-01 -9.682540e-01 0.000000e+00
3.968254e-01 -9.682540e-01 0.000000e+00
4.285714e-01 -9.682540e-01 0.000000e+00
4.603175e-01 -9.682540e-01 0.000000e+00
4.920635e-01 -9.682540e-01 0.000000e+00
5.238095e-01 -9.682540e-01 0.000000e+00
5.555556e-01 -9.682540e-01 0.000000e+00
5.873016e-01 -9.682540e-01 0.000000e+00
6.190476e-01 -9.682540e-01 0.000000e+00
6.507937e-01 -9.682540e-01 0.000000e+00
6.825397e-01 -9.682540e-01 0.000000e+00
7.142857e-01 -9.682540e-01 0.000000e+00
7.460317e-01 -9.682540e-01 0.000000e+00
7.777778e-01 -9.682540e-01 0.000000e+00
8.095238e-01 -9.682540e-01 0.000000e+00
8.412698e-01 -9.682540e-01 0.000000e+00
8.730159e-01 -9.682540e-01 0.000000e+00
9.047619e-01 -9.682540e-01 0.000000e+00
9.365079e-01 -9.682540e-01 0.000000e+00
9.682540e-01 -9.682540e-01 0.000000e+00
1.000000e+00 -9.682540e-01 0.000000e+00
-1.000000e+00 -9.365079e-01 0.000000e+00
-9.682540e-01 -9.365079e-01 0.000000e+00
-9.365079e-01 -9.365079e-01 0.000000e+00
-9.047619e-01 -9.365079e-01 0.000000e+00
-8.730159e-01 -9.365079e-01 0.000000e+00
-8.412698e-01 -9.365079e-01 0.000000e+00
-8.095238e-01 -9.365079e-01 0.000000e+00
-7.777778e-01 -9.365079e-01 0.000000e+00
-7.460317e-01 -9.365079e-01 0.000000e+00
-7.142857e-01 -9.365079e-01 0.000000e+00
-6.825397e-01 -9.365079e-01 0.000000e+00
-6.507937e-01 -9.365079e-01 0.000000e+00
-6.190476e-01 -9.365079e-01 0.000000e+00
-5.873016e-01 -9.365079e-01 0.000000e+00
-5.555556e-01 -9.365079e-01 0.000000e+00
-5.238095e-01 -9.365079e-01 0.000000e+00
-4.920635e-01 -9.365079e-01 0.000000e+00
-4.603175e-01 -9.365079e-01 0.000000e+00
-4.285714e-01 -9.365079e-01 0.000000e+00
-3.968254e-01 -9.365079e-01 0.000000e+00
-3.650794e-01 -9.365079e-01 0.000000e+00
-3.333333e-01 -9.365079e-01 0.000000e+00
-3.015873e-01 -9.365079e-01 0.000000e+00
-2.698413e-01 -9.365079e-01 0.000000e+00
-2.380952e-01 -9.365079e-01 0.000000e+00
-2.063492e-01 -9.365079e-01 0.000000e+00
-1.746032e-01 -9.365079e-01 0.000000e+00
-1.428571e-01 -9.365079e-01 0.000000e+00
-1.111111e-01 -9.365079e-01 0.000000e+00
-7.936508e-02 -9.365079e-01 0.000000e+00
-4.761905e-02 -9.365079e-01 0.000000e+00
-1.587302e-02 -9.365079e-01 0.000000e+00
1.587302e-02 -9.365079e-01 0.000000e+00
4.761905e-02 -9.365079e-01 0.000000e+00
7.936508e-02 -9.365079e-01 0.000000e+00
1.111111e-01 -9.365079e-01 0.000000e+00
1.428571e-01 -9.365079e-01 0.000000e+00
1.746032e-01 -9.365079e-01 0.000000e+00
2.063492e-01 -9.365079e-01 0.000000e+00
2.380952e-01 -9.365079e-01 0.000000e+00
2.698413e-01 -9.365079e-01 0.000000e+00
3.015873e-01 -9.365079e-01 0.000000e+00
3.333333e-01 -9.365079e-01 0.000000e+00
3.650794e-01 -9.365079e-01 0.000000e+00
3.968254e-01 -9.365079e-01 0.000000e+00
4.285714e-01 -9.365079e-01 0.000000e+00
4.603175e-01 -9.365079e-01 0.000000e+00
4.920635e-01 -9.365079e-01 0.000000e+00
5.238095e-01 -9.365079e-01 0.000000e+00
5.555556e-01 -9.365079e-01 0.000000e+00
5.873016e-01 -9.365079e-01 0.000000e+00
6.190476e-01 -9.365079e-01 0.000000e+00
6.507937e-01 -9.365079e-01 0.000000e+00
6.825397e-01 -9.365079e-01 0.000000e+00
7.142857e-01 -9.365079e-01 0.000000e+00
7.460317e-01 -9.365079e-01 0.000000e+00
7.777778e-01 -9.365079e-01 0.000000e+00
8.095238e-01 -9.365079e-01 0.000000e+00
8.412698e-01 -9.365079e-01 0.000000e+00
8.730159e-01 -9.365079e-01 0.000000e+00
9.047619e-01 -9.365079e-01 0.000000e+00
9.365079e-01 -9.365079e-01 0.000000e+00
9.682540e-01 -9.365079e-01 0.000000e+00
1.000000e+00 -9.365079e-01 0.000000e+00
-1.000000e+00 -9.047619e-01 0.000000e+00
-9.682540e-01 -9.047619e-01 0.000000e+00
-9.365079e-01 -9.047619e-01 0.000000e+00
-9.047619e-01 -9.047619e-01 0.000000e+00
-8.730159e-01 -9.047619e-01 0.000000e+00
-8.412698e-01 -9.047619e-01 0.000000e+00
-8.095238e-01 -9.047619e-01 0.000000e+00
-7.777778e-01 -9.047619e-01 0.000000e+00
-7.460317e-01 -9.047619e-01 0.000000e+00
-7.142857e-01 -9.047619e-01 0.000000e+00
-6.825397e-01 -9.047619e-01 0.000000e+00
-6.507937e-01 -9.047619e-01 0.000000e+00
-6.190476e-01 -9.047619e-01 0.000000e+00
-5.873016e-01 -9.047619e-01 0.000000e+00
-5.555556e-01 -9.047619e-01 0.000000e+00
-5.238095e-01 -9.047619e-01 0.000000e+00
-4.920635e-01 -9.047619e-01 0.000000e+00
-4.603175e-01 -9.047619e-01 0.000000e+00
-4.285714e-01 -9.047619e-01 0.000000e+00
-3.968254e-01 -9.047619e-01 0.000000e+00
-3.650794e-01 -9.047619e-01 0.000000e+00
-3.333333e-01 -9.047619e-01 0.000000e+00
-3.015873e-01 -9.047619e-01 0.000000e+00
-2.698413e-01 -9.047619e-01 0.000000e+00
-2.380952e-01 -9.047619e-01 0.000000e+00
-2.063492e-01 -9.047619e-01 0.000000e+00
-1.746032e-01 -9.047619e-01 0.000000e+00
-1.428571e-01 -9.047619e-01 0.000000e+00
-1.111111e-01 -9.047619e-01 0.000000e+00
-7.936508e-02 -9.047619e-01 0.000000e+00
-4.761905e-02 -9.047619e-01 0.000000e+00
-1.587302e-02 -9.047619e-01 0.000000e+00
1.587302e-02 -9.047619e-01 0.000000e+00
4.761905e-02 -9.047619e-01 0.000000e+00
7.936508e-02 -9.047619e-01 0.000000e+00
1.111111e-01 -9.047619e-01 0.000000e+00
1.428571e-01 -9.047619e-01 0.000000e+00
1.746032e-01 -9.047619e-01 0.000000e+00
2.063492e-01 -9.047619e-01 0.000000e+00
2.380952e-01 -9.047619e-01 0.000000e+00
2.698413e-01 -9.047619e-01 0.000000e+00
3.015873e-01 -9.047619e-01 0.000000e+00
3.333333e-01 -9.047619e-01 0.000000e+00
3.650794e-01 -9.047619e-01 0.000000e+00
3.968254e-01 -9.047619e-01 0.000000e+00
4.285714e-01 -9.047619e-01 0.000000e+00
4.603175e-01 -9.047619e-01 0.000000e+00
4.920635e-01 -9.047619e-01 0.000000e+00
5.238095e-01 -9.047619e-01 0.000000e+00
5.555556e-01 -9.047619e-01 0.000000e+00
5.873016e-01 -9.047619e-01 0.000000e+00
6.190476e-01 -9.047619e-01 0.000000e+00
[...]
POINT_DATA 4096 
SCALARS concentration double 1 
LOOKUP_TABLE default 
1.472373e+00 
1.449066e+00 
1.425990e+00 
1.403184e+00 
1.380667e+00 
1.358449e+00 
1.336544e+00 
1.314966e+00 
1.293728e+00 
1.272844e+00 
1.252331e+00 
1.232204e+00 
1.212481e+00 
1.193179e+00 
1.174316e+00 
1.155912e+00 
1.137985e+00 
1.120555e+00 
1.103644e+00 
1.087273e+00 
1.071463e+00 
1.056238e+00 
1.041619e+00 
1.027631e+00 
1.014296e+00 
1.001639e+00 
9.896829e-01 
9.784521e-01 
9.679705e-01 
9.582621e-01 
9.493505e-01 
9.412593e-01 
9.340118e-01 
9.276274e-01 
9.221211e-01 
9.175082e-01 
9.138042e-01 
9.110234e-01 
9.091788e-01 
9.082832e-01 
9.086637e-01 
9.104076e-01 
9.134076e-01 
9.175436e-01 
9.227218e-01 
9.288767e-01 
9.359620e-01 
9.439421e-01 
9.527863e-01 
9.624661e-01 
9.729542e-01 
9.842220e-01 
9.962425e-01 
1.008989e+00 
1.022436e+00 
1.036557e+00 
1.051326e+00 
1.066719e+00 
1.082712e+00 
1.099280e+00 
1.116401e+00 
1.134052e+00 
1.152212e+00 
1.170860e+00 
1.450900e+00 
1.427295e+00 
1.403919e+00 
1.380809e+00 
1.357983e+00 
1.335454e+00 
1.313233e+00 
1.291335e+00 
1.269773e+00 
1.248562e+00 
1.227718e+00 
1.207258e+00 
1.187198e+00 
1.167558e+00 
1.148355e+00 
1.129610e+00 
1.111342e+00 
1.093573e+00 
1.076323e+00 
1.059615e+00 
1.043472e+00 
1.027917e+00 
1.012975e+00 
9.986694e-01 
9.850252e-01 
9.720677e-01 
9.598220e-01 
9.483138e-01 
9.375686e-01 
9.276119e-01 
9.184691e-01 
9.101654e-01 
9.027262e-01 
8.961722e-01 
8.905197e-01 
8.857854e-01 
8.819863e-01 
8.791378e-01 
8.772542e-01 
8.763499e-01 
8.767893e-01 
8.786401e-01 
8.817737e-01 
8.860612e-01 
8.914071e-01 
8.977468e-01 
9.050351e-01 
9.132361e-01 
9.223187e-01 
9.322535e-01 
9.430115e-01 
9.545632e-01 
9.668798e-01 
9.799333e-01 
9.936959e-01 
1.008140e+00 
1.023240e+00 
1.038969e+00 
1.055300e+00 
1.072211e+00 
1.089676e+00 
1.107672e+00 
1.126177e+00 
1.145170e+00 
1.429769e+00 
1.405861e+00 
1.382180e+00 
1.358761e+00 
1.335622e+00 
1.312775e+00 
1.290232e+00 
1.268008e+00 
1.246116e+00 
1.224571e+00 
1.203390e+00 
1.182589e+00 
1.162186e+00 
1.142199e+00 
1.122648e+00 
1.103552e+00 
1.084934e+00 
1.066813e+00 
1.049214e+00 
1.032158e+00 
1.015670e+00 
9.997733e-01 
9.844944e-01 
9.698585e-01 
9.558917e-01 
9.426207e-01 
9.300723e-01 
9.182737e-01 
9.072522e-01 
8.970349e-01 
8.876491e-01 
8.791219e-01 
8.714801e-01 
8.647464e-01 
8.589385e-01 
8.540750e-01 
8.501743e-01 
8.472535e-01 
8.453278e-01 
8.444139e-01 
8.449168e-01 
8.468791e-01 
8.501502e-01 
8.545932e-01 
8.601118e-01 
8.666429e-01 
8.741418e-01 
8.825726e-01 
8.919033e-01 
9.021033e-01 
9.131421e-01 
9.249889e-01 
9.376127e-01 
9.509838e-01 
9.650730e-01 
9.798514e-01 
9.952909e-01 
1.011364e+00 
1.028044e+00 
1.045304e+00 
1.063121e+00 
1.081469e+00 
1.100326e+00 
1.119669e+00 
1.408985e+00 
1.384771e+00 
1.360782e+00 
1.337052e+00 
1.313596e+00 
1.290426e+00 
1.267556e+00 
1.245000e+00 
1.222772e+00 
1.200887e+00 
1.179361e+00 
1.158212e+00 
1.137457e+00 
1.117115e+00 
1.097207e+00 
1.077752e+00 
1.058773e+00 
1.040291e+00 
1.022330e+00 
1.004914e+00 
9.880680e-01 
9.718174e-01 
9.561887e-01 
9.412089e-01 
9.269056e-01 
9.133072e-01 
9.004422e-01 
8.883394e-01 
8.770281e-01 
8.665372e-01 
8.568959e-01 
8.481333e-01 
8.402781e-01 
8.333546e-01 
8.273826e-01 
8.223828e-01 
8.183751e-01 
8.153780e-01 
8.134083e-01 
8.124853e-01 
8.130574e-01 
8.151363e-01 
8.185494e-01 
8.231529e-01 
8.288509e-01 
8.355817e-01 
8.433012e-01 
8.519730e-01 
8.615640e-01 
8.720419e-01 
8.833746e-01 
8.955297e-01 
9.084742e-01 
9.221763e-01 
9.366052e-01 
9.517303e-01 
9.675219e-01 
9.839512e-01 
1.000990e+00 
1.018612e+00 
1.036790e+00 
1.055500e+00 
1.074717e+00 
1.094419e+00 
1.388562e+00 
1.364041e+00 
1.339741e+00 
1.315695e+00 
1.291919e+00 
1.268423e+00 
1.245221e+00 
1.222327e+00 
1.199756e+00 
1.177524e+00 
1.155647e+00 
1.134142e+00 
1.113028e+00 
1.092323e+00 
1.072048e+00 
1.052224e+00 
1.032873e+00 
1.014019e+00 
9.956856e-01 
9.778974e-01 
9.606807e-01 
9.440623e-01 
9.280699e-01 
9.127321e-01 
8.980780e-01 
8.841375e-01 
8.709411e-01 
8.585195e-01 
8.469039e-01 
8.361253e-01 
8.262151e-01 
8.172043e-01 
8.091238e-01 
8.019999e-01 
7.958546e-01 
7.907105e-01 
7.865896e-01 
7.835121e-01 
7.814964e-01 
7.805650e-01 
7.812119e-01 
7.834124e-01 
7.869719e-01 
7.917416e-01 
7.976266e-01 
8.045667e-01 
8.125180e-01 
8.214434e-01 
8.313082e-01 
8.420781e-01 
8.537191e-01 
8.661971e-01 
8.794769e-01 
8.935246e-01 
9.083073e-01 
9.237929e-01 
9.399501e-01 
9.567485e-01 
9.741588e-01 
9.921529e-01 
1.010704e+00 
1.029785e+00 
1.049373e+00 
1.069443e+00 
1.368514e+00 
1.343682e+00 
1.319070e+00 
1.294706e+00 
1.270604e+00 
1.246778e+00 
1.223240e+00 
1.200004e+00 
1.177085e+00 
1.154499e+00 
1.132263e+00 
1.110395e+00 
1.088913e+00 
1.067837e+00 
1.047186e+00 
1.026983e+00 
1.007251e+00 
9.880131e-01 
9.692948e-01 
9.511218e-01 
9.335212e-01 
9.165212e-01 
9.001508e-01 
8.844401e-01 
8.694199e-01 
8.551220e-01 
8.415787e-01 
8.288228e-01 
8.168875e-01 
8.058063e-01 
7.956127e-01 
7.863402e-01 
7.780215e-01 
7.706855e-01 
7.643567e-01 
7.590599e-01 
7.548193e-01 
7.516568e-01 
7.495929e-01 
7.486539e-01 
7.493812e-01 
7.517078e-01 
7.554185e-01 
7.603607e-01 
7.664413e-01 
7.736015e-01 
7.817972e-01 
7.909901e-01 
8.011434e-01 
8.122209e-01 
8.241860e-01 
8.370025e-01 
8.506334e-01 
8.650422e-01 
8.801940e-01 
8.960547e-01 
9.125915e-01 
9.297724e-01 
9.475670e-01 
9.659458e-01 
9.848807e-01 
1.004345e+00 
1.024313e+00 
1.044759e+00 
1.348853e+00 
1.323709e+00 
1.298781e+00 
1.274095e+00 
1.249666e+00 
1.225506e+00 
1.201627e+00 
1.178044e+00 
1.154771e+00 
1.131826e+00 
1.109225e+00 
1.086986e+00 
1.065128e+00 
1.043671e+00 
1.022636e+00 
1.002044e+00 
9.819199e-01 
9.622873e-01 
9.431722e-01 
9.246014e-01 
9.066034e-01 
8.892074e-01 
8.724441e-01 
8.563450e-01 
8.409429e-01 
8.262714e-01 
8.123648e-01 
7.992581e-01 
7.869870e-01 
7.755872e-01 
7.650947e-01 
7.555456e-01 
7.469750e-01 
7.394144e-01 
7.328909e-01 
7.274322e-01 
7.230647e-01 
7.198125e-01 
7.176981e-01 
7.167527e-01 
7.175666e-01 
7.200242e-01 
7.238912e-01 
7.290133e-01 
7.352996e-01 
7.426921e-01 
7.511464e-01 
7.606221e-01 
7.710805e-01 
7.824823e-01 
7.947887e-01 
8.079608e-01 
8.219597e-01 
8.367462e-01 
8.522832e-01 
8.685347e-01 
8.854660e-01 
9.030437e-01 
9.212359e-01 
9.400121e-01 
9.593430e-01 
9.792008e-01 
9.995591e-01 
1.020393e+00 
1.329594e+00 
1.304135e+00 
1.278889e+00 
1.253879e+00 
1.229120e+00 
1.204621e+00 
1.180398e+00 
1.156463e+00 
1.132832e+00 
1.109522e+00 
1.086550e+00 
1.063933e+00 
1.041692e+00 
1.019846e+00 
9.984169e-01 
9.774268e-01 
9.568999e-01 
9.368611e-01 
9.173369e-01 
8.983554e-01 
8.799459e-01 
8.621393e-01 
8.449677e-01 
8.284643e-01 
8.126636e-01 
7.976014e-01 
7.833140e-01 
7.698390e-01 
7.572143e-01 
7.454784e-01 
7.346701e-01 
7.248282e-01 
7.159907e-01 
7.081917e-01 
7.014617e-01 
6.958311e-01 
6.913290e-01 
6.879818e-01 
6.858145e-01 
6.848641e-01 
6.857695e-01 
6.883624e-01 
6.923914e-01 
6.977020e-01 
7.042054e-01 
7.118443e-01 
7.205729e-01 
7.303488e-01 
7.411301e-01 
7.528749e-01 
7.655413e-01 
7.790878e-01 
7.934729e-01 
8.086551e-01 
8.245947e-01 
8.412536e-01 
8.585954e-01 
8.765851e-01 
8.951895e-01 
9.143767e-01 
9.341164e-01 
9.543799e-01 
9.751398e-01 
9.963703e-01 
1.310749e+00 
1.284977e+00 
1.259411e+00 
1.234076e+00 
1.208984e+00 
1.184145e+00 
1.159574e+00 
1.135285e+00 
1.111292e+00 
1.087613e+00 
1.064264e+00 
1.041264e+00 
1.018633e+00 
9.963901e-01 
9.745581e-01 
9.531599e-01 
9.322198e-01 
9.117635e-01 
8.918181e-01 
8.724127e-01 
8.535778e-01 
8.353456e-01 
8.177498e-01 
8.008253e-01 
7.846087e-01 
7.691376e-01 
7.544509e-01 
7.405884e-01 
7.275910e-01 
7.154999e-01 
7.043570e-01 
6.942042e-01 
6.850830e-01 
6.770306e-01 
6.700808e-01 
6.642670e-01 
6.596214e-01 
6.561731e-01 
6.539497e-01 
6.529946e-01 
6.539902e-01 
6.567197e-01 
6.609162e-01 
6.664243e-01 
6.731574e-01 
6.810579e-01 
6.900781e-01 
7.001727e-01 
7.112965e-01 
7.234043e-01 
7.364511e-01 
7.503920e-01 
7.651831e-01 
7.807801e-01 
7.971408e-01 
8.142250e-01 
8.319944e-01 
8.504125e-01 
8.694445e-01 
8.890574e-01 
9.092196e-01 
9.299016e-01 
9.510751e-01 
9.727138e-01 
1.292358e+00 
1.266270e+00 
1.240383e+00 
1.214721e+00 
1.189293e+00 
1.164111e+00 
1.139189e+00 
1.114541e+00 
1.090181e+00 
1.066127e+00 
1.042395e+00 
1.019005e+00 
9.959744e-01 
9.733257e-01 
9.510806e-01 
9.292626e-01 
9.078968e-01 
8.870095e-01 
8.666289e-01 
8.467846e-01 
8.275084e-01 
8.088337e-01 
7.907958e-01 
7.734314e-01 
7.567791e-01 
7.408787e-01 
7.257715e-01 
7.115000e-01 
6.981080e-01 
6.856400e-01 
6.741413e-01 
6.636573e-01 
6.542329e-01 
6.459094e-01 
6.387238e-01 
6.327136e-01 
6.279141e-01 
6.243573e-01 
6.220741e-01 
6.211162e-01 
6.222153e-01 
6.250910e-01 
6.294637e-01 
6.351809e-01 
6.421582e-01 
6.503373e-01 
6.596678e-01 
6.701008e-01 
6.815874e-01 
6.940786e-01 
7.075258e-01 
7.218809e-01 
7.370971e-01 
7.531273e-01 
7.699267e-01 
7.874528e-01 
8.056657e-01 
8.245269e-01 
8.440003e-01 
8.640514e-01 
8.846479e-01 
9.057591e-01 
9.273561e-01 
9.494119e-01 
1.274423e+00 
1.248019e+00 
1.221812e+00 
1.195821e+00 
1.170056e+00 
1.144529e+00 
1.119253e+00 
1.094243e+00 
1.069512e+00 
1.045078e+00 
1.020958e+00 
9.971694e-01 
9.737334e-01 
9.506704e-01 
9.280030e-01 
9.057551e-01 
8.839523e-01 
8.626219e-01 
8.417926e-01 
8.214954e-01 
8.017628e-01 
7.826294e-01 
7.641321e-01 
7.463094e-01 
7.292018e-01 
7.128516e-01 
6.973025e-01 
6.826001e-01 
6.687911e-01 
6.559237e-01 
6.440468e-01 
6.332097e-01 
6.234615e-01 
6.148474e-01 
6.074090e-01 
6.011876e-01 
5.962225e-01 
5.925491e-01 
5.902017e-01 
5.892415e-01 
5.904496e-01 
5.934766e-01 
5.980337e-01 
6.039721e-01 
6.112094e-01 
6.196858e-01 
6.293471e-01 
6.401401e-01 
6.520114e-01 
6.649080e-01 
6.787774e-01 
6.935678e-01 
7.092293e-01 
7.257120e-01 
7.429684e-01 
7.609537e-01 
7.796258e-01 
7.989448e-01 
8.188729e-01 
8.393745e-01 
8.604161e-01 
8.819662e-01 
9.039953e-01 
9.264756e-01 
1.256961e+00 
1.230242e+00 
1.203713e+00 
1.177393e+00 
1.151290e+00 
1.125416e+00 
1.099784e+00 
1.074409e+00 
1.049304e+00 
1.024486e+00 
9.999718e-01 
9.757808e-01 
9.519324e-01 
9.284477e-01 
9.053495e-01 
8.826623e-01 
8.604119e-01 
8.386263e-01 
8.173352e-01 
7.965706e-01 
7.763660e-01 
7.567574e-01 
7.377829e-01 
7.194828e-01 
7.018995e-01 
6.850777e-01 
6.690640e-01 
6.539069e-01 
6.396568e-01 
6.263655e-01 
6.140860e-01 
6.028721e-01 
5.927775e-01 
5.838519e-01 
5.761418e-01 
5.696935e-01 
5.645504e-01 
5.607516e-01 
5.583355e-01 
5.573746e-01 
5.586973e-01 
5.618811e-01 
5.666318e-01 
5.728058e-01 
5.803217e-01 
5.891166e-01 
5.991318e-01 
6.103089e-01 
6.225895e-01 
6.359159e-01 
6.502313e-01 
6.654802e-01 
6.816090e-01 
6.985652e-01 
7.162982e-01 
7.347610e-01 
7.539095e-01 
7.737020e-01 
7.940991e-01 
8.150642e-01 
8.365626e-01 
8.585620e-01 
8.810323e-01 
9.039452e-01 
1.239990e+00 
1.212957e+00 
1.186107e+00 
1.159456e+00 
1.133015e+00 
1.106793e+00 
1.080804e+00 
1.055061e+00 
1.029579e+00 
1.004374e+00 
9.794625e-01 
9.548637e-01 
9.305970e-01 
9.066838e-01 
8.831470e-01 
8.600113e-01 
8.373031e-01 
8.150508e-01 
7.932852e-01 
7.720387e-01 
7.513465e-01 
7.312455e-01 
7.117753e-01 
6.929778e-01 
6.748973e-01 
6.575810e-01 
6.410783e-01 
6.254412e-01 
6.107236e-01 
5.969817e-01 
5.842729e-01 
5.726560e-01 
5.621898e-01 
5.529294e-01 
5.449269e-01 
5.382340e-01 
5.328989e-01 
5.289652e-01 
5.264754e-01 
5.255154e-01 
5.269583e-01 
5.303051e-01 
5.352606e-01 
5.416866e-01 
5.495019e-01 
5.586392e-01 
5.690338e-01 
5.806215e-01 
5.933382e-01 
6.071209e-01 
6.219081e-01 
6.376402e-01 
6.542599e-01 
6.717116e-01 
6.899420e-01 
7.089015e-01 
7.285440e-01 
7.488261e-01 
7.697070e-01 
7.911488e-01 
8.131159e-01 
8.355753e-01 
8.584962e-01 
8.818498e-01 
1.223530e+00 
1.196184e+00 
1.169013e+00 
1.142033e+00 
1.115253e+00 
1.088682e+00 
1.062335e+00 
1.036224e+00 
1.010363e+00 
9.847681e-01 
9.594560e-01 
9.344452e-01 
9.097551e-01 
8.854073e-01 
8.614246e-01 
8.378320e-01 
8.146563e-01 
7.919264e-01 
7.696736e-01 
7.479314e-01 
7.267356e-01 
7.061246e-01 
6.861394e-01 
6.668235e-01 
6.482232e-01 
6.303879e-01 
6.133703e-01 
5.972258e-01 
5.820124e-01 
5.677907e-01 
5.546233e-01 
5.425744e-01 
5.317086e-01 
5.220874e-01 
5.137692e-01 
5.068118e-01 
5.012691e-01 
4.971895e-01 
4.946204e-01 
4.936629e-01 
4.952323e-01 
4.987488e-01 
5.039217e-01 
5.106188e-01 
5.187568e-01 
5.282628e-01 
5.390651e-01 
5.510923e-01 
5.642741e-01 
5.785416e-01 
5.938283e-01 
6.100700e-01 
6.272054e-01 
6.451758e-01 
6.639250e-01 
6.834009e-01 
7.035554e-01 
7.243433e-01 
7.457226e-01 
7.676542e-01 
7.901016e-01 
8.130312e-01 
8.364116e-01 
8.602138e-01 
1.207597e+00 
1.179942e+00 
1.152453e+00 
1.125145e+00 
1.098026e+00 
1.071108e+00 
1.044403e+00 
1.017922e+00 
9.916816e-01 
9.656952e-01 
9.399799e-01 
9.145536e-01 
8.894359e-01 
8.646480e-01 
8.402129e-01 
8.161556e-01 
7.925033e-01 
7.692853e-01 
7.465332e-01 
7.242813e-01 
7.025662e-01 
6.814273e-01 
6.609072e-01 
6.410509e-01 
6.219069e-01 
6.035270e-01 
5.859670e-01 
5.692859e-01 
5.535461e-01 
5.388132e-01 
5.251552e-01 
5.126426e-01 
5.013465e-01 
4.913355e-01 
4.826754e-01 
4.754312e-01 
4.696632e-01 
4.654254e-01 
4.627705e-01 
4.618173e-01 
4.635186e-01 
4.672123e-01 
4.726177e-01 
4.796074e-01 
4.880944e-01 
4.979982e-01 
5.092389e-01 
5.217372e-01 
5.354156e-01 
5.501988e-01 
5.660145e-01 
5.827936e-01 
6.004709e-01 
6.189841e-01 
6.382741e-01 
6.582864e-01 
6.789709e-01 
7.002808e-01 
7.221727e-01 
7.446065e-01 
7.675452e-01 
7.909543e-01 
8.148023e-01 
8.390597e-01 
1.192209e+00 
1.164250e+00 
1.136448e+00 
1.108814e+00 
1.081359e+00 
1.054094e+00 
1.027031e+00 
1.000181e+00 
9.735599e-01 
9.471806e-01 
9.210599e-01 
8.952152e-01 
8.696660e-01 
8.444331e-01 
8.195397e-01 
7.950106e-01 
7.708731e-01 
7.471569e-01 
7.238939e-01 
7.011188e-01 
6.788689e-01 
6.571846e-01 
6.361095e-01 
6.156905e-01 
5.959784e-01 
5.770274e-01 
5.588965e-01 
5.416484e-01 
5.253501e-01 
5.100724e-01 
4.958896e-01 
4.828789e-01 
4.711188e-01 
4.606860e-01 
4.516551e-01 
4.440993e-01 
4.380864e-01 
4.336766e-01 
4.309290e-01 
4.299817e-01 
4.318193e-01 
4.356991e-01 
4.413549e-01 
4.486622e-01 
4.575279e-01 
4.678623e-01 
4.795757e-01 
4.925800e-01 
5.067894e-01 
5.221216e-01 
5.384981e-01 
5.558446e-01 
5.740915e-01 
5.931727e-01 
6.130264e-01 
6.335956e-01 
6.548282e-01 
6.766759e-01 
6.990944e-01 
7.220424e-01 
7.454824e-01 
7.693796e-01 
7.937020e-01 
8.184202e-01 
1.177377e+00 
1.149118e+00 
1.121005e+00 
1.093049e+00 
1.065261e+00 
1.037651e+00 
1.010231e+00 
9.830130e-01 
9.560109e-01 
9.292386e-01 
9.027117e-01 
8.764473e-01 
8.504644e-01 
8.247836e-01 
7.994277e-01 
7.744216e-01 
7.497924e-01 
7.255697e-01 
7.017859e-01 
6.784759e-01 
6.556774e-01 
6.334316e-01 
6.117833e-01 
5.907809e-01 
5.704770e-01 
5.509290e-01 
5.321985e-01 
5.143524e-01 
4.974623e-01 
4.816048e-01 
4.668608e-01 
4.533151e-01 
4.410548e-01 
4.301659e-01 
4.207327e-01 
4.128381e-01 
4.065585e-01 
4.019617e-01 
3.991134e-01 
3.981711e-01 
4.001367e-01 
4.042123e-01 
4.101399e-01 
4.177941e-01 
4.270727e-01 
4.378747e-01 
4.500995e-01 
4.636490e-01 
4.784282e-01 
4.943470e-01 
5.113203e-01 
5.292680e-01 
5.481159e-01 
5.677939e-01 
5.882373e-01 
6.093868e-01 
6.311884e-01 
6.535926e-01 
6.765537e-01 
7.000302e-01 
7.239836e-01 
7.483791e-01 
7.731846e-01 
7.983708e-01 
1.163139e+00 
1.134586e+00 
1.106168e+00 
1.077896e+00 
1.049780e+00 
1.021830e+00 
9.940565e-01 
9.664727e-01 
9.390915e-01 
9.119268e-01 
8.849938e-01 
8.583090e-01 
8.318908e-01 
8.057595e-01 
7.799374e-01 
7.544490e-01 
7.293214e-01 
7.045840e-01 
6.802689e-01 
6.564113e-01 
6.330493e-01 
6.102244e-01 
5.879822e-01 
5.663724e-01 
5.454495e-01 
5.252734e-01 
5.059092e-01 
4.874278e-01 
4.699059e-01 
4.534261e-01 
4.380769e-01 
4.239518e-01 
4.111479e-01 
3.997618e-01 
3.898891e-01 
3.816236e-01 
3.750521e-01 
3.702512e-01 
3.672944e-01 
3.663631e-01 
3.684737e-01 
3.727612e-01 
3.789867e-01 
3.870220e-01 
3.967529e-01 
4.080648e-01 
4.208444e-01 
4.349819e-01 
4.503727e-01 
4.669177e-01 
4.845247e-01 
5.031078e-01 
5.225877e-01 
5.428905e-01 
5.639484e-01 
5.857004e-01 
6.080906e-01 
6.310685e-01 
6.545875e-01 
6.786054e-01 
7.030837e-01 
7.279873e-01 
7.532843e-01 
7.789455e-01 
1.149502e+00 
1.120661e+00 
1.091946e+00 
1.063364e+00 
1.034927e+00 
1.006642e+00 
9.785215e-01 
9.505766e-01 
9.228202e-01 
8.952661e-01 
8.679291e-01 
8.408253e-01 
8.139725e-01 
7.873903e-01 
7.611004e-01 
7.351270e-01 
7.094964e-01 
6.842378e-01 
6.593830e-01 
6.349667e-01 
6.110270e-01 
5.876059e-01 
5.647494e-01 
5.425087e-01 
5.209401e-01 
5.001057e-01 
4.800740e-01 
4.609201e-01 
4.427258e-01 
4.255804e-01 
4.095802e-01 
3.948283e-01 
3.814329e-01 
3.695028e-01 
3.591468e-01 
3.504720e-01 
3.435776e-01 
3.385507e-01 
3.354736e-01 
3.345539e-01 
3.368138e-01 
3.413280e-01 
3.478798e-01 
3.563337e-01 
3.665595e-01 
3.784264e-01 
3.918062e-01 
4.065764e-01 
4.226211e-01 
4.398320e-01 
4.581091e-01 
4.773603e-01 
4.975013e-01 
5.184542e-01 
5.401487e-01 
5.625218e-01 
5.855162e-01 
6.090801e-01 
6.331666e-01 
6.577332e-01 
6.827413e-01 
7.081560e-01 
7.339456e-01 
7.600815e-01 
1.136487e+00 
1.107365e+00 
1.078359e+00 
1.049475e+00 
1.020723e+00 
9.921114e-01 
9.636502e-01 
9.353506e-01 
9.072248e-01 
8.792858e-01 
8.515484e-01 
8.240282e-01 
7.967426e-01 
7.697105e-01 
7.429528e-01 
7.164929e-01 
6.903565e-01 
6.645719e-01 
6.391702e-01 
6.141856e-01 
5.896559e-01 
5.656232e-01 
5.421339e-01 
5.192400e-01 
4.969994e-01 
4.754766e-01 
4.547430e-01 
4.348778e-01 
4.159682e-01 
3.981105e-01 
3.814096e-01 
3.659790e-01 
3.519391e-01 
3.394130e-01 
3.285249e-01 
3.193978e-01 
3.121458e-01 
3.068688e-01 
3.036595e-01 
3.027528e-01 
3.051657e-01 
3.099261e-01 
3.168395e-01 
3.257571e-01 
3.365281e-01 
3.490023e-01 
3.630348e-01 
3.784883e-01 
3.952346e-01 
4.131554e-01 
4.321425e-01 
4.520973e-01 
4.729306e-01 
4.945609e-01 
5.169154e-01 
5.399291e-01 
5.635439e-01 
5.877072e-01 
6.123716e-01 
6.374948e-01 
6.630383e-01 
6.889677e-01 
7.152518e-01 
7.418626e-01 
1.124111e+00 
1.094718e+00 
1.065429e+00 
1.036252e+00 
1.007193e+00 
9.782625e-01 
9.494688e-01 
9.208224e-01 
8.923347e-01 
8.640180e-01 
8.358863e-01 
8.079547e-01 
7.802401e-01 
7.527609e-01 
7.255371e-01 
6.985912e-01 
6.719478e-01 
6.456341e-01 
6.196802e-01 
5.941195e-01 
5.689892e-01 
5.443310e-01 
5.201915e-01 
4.966233e-01 
4.736855e-01 
4.514442e-01 
4.299737e-01 
4.093572e-01 
3.896874e-01 
3.710675e-01 
3.536116e-01 
3.374446e-01 
3.227006e-01 
3.095191e-01 
2.980423e-01 
2.884128e-01 
2.807629e-01 
2.752076e-01 
2.718524e-01 
2.709600e-01 
2.735303e-01 
2.785604e-01 
2.858778e-01 
2.953124e-01 
3.066871e-01 
3.198286e-01 
3.345726e-01 
3.507654e-01 
3.682653e-01 
3.869430e-01 
4.066818e-01 
4.273770e-01 
4.489342e-01 
4.712688e-01 
4.943058e-01 
5.179790e-01 
5.422292e-01 
5.670035e-01 
5.922549e-01 
6.179410e-01 
6.440241e-01 
6.704704e-01 
6.972495e-01 
7.243341e-01 
1.112395e+00 
1.082740e+00 
1.053178e+00 
1.023716e+00 
9.943608e-01 
9.651206e-01 
9.360040e-01 
9.070202e-01 
8.781799e-01 
8.494946e-01 
8.209771e-01 
7.926419e-01 
7.645049e-01 
7.365837e-01 
7.088977e-01 
6.814682e-01 
6.543187e-01 
6.274751e-01 
6.009660e-01 
5.748237e-01 
5.490844e-01 
5.237892e-01 
4.989844e-01 
4.747226e-01 
4.510635e-01 
4.280746e-01 
4.058326e-01 
3.844242e-01 
3.639472e-01 
3.445120e-01 
3.262422e-01 
3.092748e-01 
2.937593e-01 
2.798538e-01 
2.677226e-01 
2.575318e-01 
2.494365e-01 
2.435694e-01 
2.400523e-01 
2.391754e-01 
2.419082e-01 
2.472367e-01 
2.550094e-01 
2.650243e-01 
2.770709e-01 
2.909485e-01 
3.064702e-01 
3.234640e-01 
3.417733e-01 
3.612576e-01 
3.817916e-01 
4.032640e-01 
4.255762e-01 
4.486409e-01 
4.723814e-01 
4.967307e-01 
5.216292e-01 
5.470242e-01 
5.728689e-01 
5.991220e-01 
6.257465e-01 
6.527095e-01 
6.799818e-01 
7.075371e-01 
1.101357e+00 
1.071450e+00 
1.041625e+00 
1.011889e+00 
9.822488e-01 
9.527104e-01 
9.232819e-01 
8.939720e-01 
8.647902e-01 
8.357472e-01 
8.068548e-01 
7.781263e-01 
7.495764e-01 
7.212218e-01 
6.930804e-01 