# vtk DataFile Version 2.0 
Quadtree Mesh 
ASCII 
DATASET UNSTRUCTURED_GRID 
POINTS 4096 double 
-1.000000e+00 -1.000000e+00 0.000000e+00
-9.682540e-01 -1.000000e+00 0.000000e+00
-9.365079e-01 -1.000000e+00 0.000000e+00
-9.047619e-01 -1.000000e+00 0.000000e+00
-8.730159e-01 -1.000000e+00 0.000000e+00
-8.412698e-01 -1.000000e+00 0.000000e+00
-8.095238e-01 -1.000000e+00 0.000000e+00
-7.777778e-01 -1.000000e+00 0.000000e+00
-7.460317e-01 -1.000000e+00 0.000000e+00
-7.142857e-01 -1.000000e+00 0.000000e+00
-6.825397e-01 -1.000000e+00 0.000000e+00
-6.507937e-01 -1.000000e+00 0.000000e+00
-6.190476e-01 -1.000000e+00 0.000000e+00
-5.873016e-01 -1.000000e+00 0.000000e+00
-5.555556e-01 -1.000000e+00 0.000000e+00
-5.238095e-01 -1.000000e+00 0.000000e+00
-4.920635e-01 -1.000000e+00 0.000000e+00
-4.603175e-01 -1.000000e+00 0.000000e+00
-4.285714e-01 -1.000000e+00 0.000000e+00
-3.968254e-01 -1.000000e+00 0.000000e+00
-3.650794e-01 -1.000000e+00 0.000000e+00
-3.333333e-01 -1.000000e+00 0.000000e+00
-3.015873e-01 -1.000000e+00 0.000000e+00
-2.698413e-01 -1.000000e+00 0.000000e+00
-2.380952e-01 -1.000000e+00 0.000000e+00
-2.063492e-01 -1.000000e+00 0.000000e+00
-1.746032e-01 -1.000000e+00 0.000000e+00
-1.428571e-01 -1.000000e+00 0.000000e+00
-1.111111e-01 -1.000000e+00 0.000000e+00
-7.936508e-02 -1.000000e+00 0.000000e+00
-4.761905e-02 -1.000000e+00 0.000000e+00
-1.587302e-02 -1.000000e+00 0.000000e+00
1.587302e-02 -1.000000e+00 0.000000e+00
4.761905e-02 -1.000000e+00 0.000000e+00
7.936508e-02 -1.000000e+00 0.000000e+00
1.111111e-01 -1.000000e+00 0.000000e+00
1.428571e-01 -1.000000e+00 0.000000e+00
1.746032e-01 -1.000000e+00 0.000000e+00
2.063492e-01 -1.000000e+00 0.000000e+00
2.380952e-01 -1.000000e+00 0.000000e+00
2.698413e-01 -1.000000e+00 0.000000e+00
3.015873e-01 -1.000000e+00 0.000000e+00
3.333333e-01 -1.000000e+00 0.000000e+00
3.650794e-01 -1.000000e+00 0.000000e+00
3.968254e-01 -1.000000e+00 0.000000e+00
4.285714e-01 -1.000000e+00 0.000000e+00
4.603175e-01 -1.000000e+00 0.000000e+00
4.920635e-01 -1.000000e+00 0.000000e+00
5.238095e-01 -1.000000e+00 0.000000e+00
5.555556e-01 -1.000000e+00 0.000000e+00
5.873016e-01 -1.000000e+00 0.000000e+00
6.190476e-01 -1.000000e+00 0.000000e+00
6.507937e-01 -1.000000e+00 0.000000e+00
6.825397e-01 -1.000000e+00 0.000000e+00
7.142857e-01 -1.000000e+00 0.000000e+00
7.460317e-01 -1.000000e+00 0.000000e+00
7.777778e-01 -1.000000e+00 0.000000e+00
8.095238e-01 -1.000000e+00 0.000000e+00
8.412698e-01 -1.000000e+00 0.000000e+00
8.730159e-01 -1.000000e+00 0.000000e+00
9.047619e-01 -1.000000e+00 0.000000e+00
9.365079e-01 -1.000000e+00 0.000000e+00
9.682540e-01 -1.000000e+00 0.000000e+00
1.000000e+00 -1.000000e+00 0.000000e+00
-1.000000e+00 -9.682540e-01 0.000000e+00
-9.682540e-01 -9.682540e-01 0.000000e+00
-9.365079e-01 -9.682540e-01 0.000000e+00
-9.047619e-01 -9.682540e-01 0.000000e+00
-8.730159e-01 -9.682540e-01 0.000000e+00
-8.412698e-01 -9.682540e-01 0.000000e+00
-8.095238e-01 -9.682540e-01 0.000000e+00
-7.777778e-01 -9.682540e-01 0.000000e+00
-7.460317e-01 -9.682540e-01 0.000000e+00
-7.142857e-01 -9.682540e-01 0.000000e+00
-6.825397e-01 -9.682540e-01 0.000000e+00
-6.507937e-01 -9.682540e-01 0.000000e+00
-6.190476e-01 -9.682540e-01 0.000000e+00
-5.873016e-01 -9.682540e-01 0.000000e+00
-5.555556e-01 -9.682540e-01 0.000000e+00
-5.238095e-01 -9.682540e-01 0.000000e+00
-4.920635e-01 -9.682540e-01 0.000000e+00
-4.603175e-01 -9.682540e-01 0.000000e+00
-4.285714e-01 -9.682540e-01 0.000000e+00
-3.968254e-01 -9.682540e-01 0.000000e+00
-3.650794e-01 -9.682540e-01 0.000000e+00
-3.333333e-01 -9.682540e-01 0.000000e+00
-3.015873e-01 -9.682540e-01 0.000000e+00
-2.698413e-01 -9.682540e-01 0.000000e+00
-2.380952e-01 -9.682540e-01 0.000000e+00
-2.063492e-01 -9.682540e-01 0.000000e+00
-1.746032e-01 -9.682540e-01 0.000000e+00
-1.428571e-01 -9.682540e-01 0.000000e+00
-1.111111e-01 -9.682540e-01 0.000000e+00
-7.936508e-02 -9.682540e-01 0.000000e+00
-4.761905e-02 -9.682540e-01 0.000000e+00
-1.587302e-02 -9.682540e-01 0.000000e+00
1.587302e-02 -9.682540e-01 0.000000e+00
4.761905e-02 -9.682540e-01 0.000000e+00
7.936508e-02 -9.682540e-01 0.000000e+00
1.111111e-01 -9.682540e-01 0.000000e+00
1.428571e-01 -9.682540e-01 0.000000e+00
1.746032e-01 -9.682540e-01 0.000000e+00
2.063492e-01 -9.682540e-01 0.000000e+00
2.380952e-01 -9.682540e-01 0.000000e+00
2.698413e-01 -9.682540e-01 0.000000e+00
3.015873e-01 -9.682540e-01 0.000000e+00
3.333333e-01 -9.682540e-01 0.000000e+00
3.650794e-01 -9.682540e-01 0.000000e+00
3.968254e-01 -9.682540e-01 0.000000e+00
4.285714e-01 -9.682540e-01 0.000000e+00
4.603175e-01 -9.682540e-01 0.000000e+00
4.920635e-01 -9.682540e-01 0.000000e+00
5.238095e-01 -9.682540e-01 0.000000e+00
5.555556e-01 -9.682540e-01 0.000000e+00
5.873016e-01 -9.682540e-01 0.000000e+00
6.190476e-01 -9.682540e-01 0.000000e+00
6.507937e-01 -9.682540e-01 0.000000e+00
6.825397e-01 -9.682540e-01 0.000000e+00
7.142857e-01 -9.682540e-01 0.000000e+00
7.460317e-01 -9.682540e-01 0.000000e+00
7.777778e-01 -9.682540e-01 0.000000e+00
8.095238e-01 -9.682540e-01 0.000000e+00
8.412698e-01 -9.682540e-01 0.000000e+00
8.730159e-01 -9.682540e-01 0.000000e+00
9.047619e-01 -9.682540e-01 0.000000e+00
9.365079e-01 -9.682540e-01 0.000000e+00
9.682540e-01 -9.682540e-01 0.000000e+00
1.000000e+00 -9.682540e-01 0.000000e+00
-1.000000e+00 -9.365079e-01 0.000000e+00
-9.682540e-01 -9.365079e-01 0.000000e+00
-9.365079e-01 -9.365079e-01 0.000000e+00
-9.047619e-01 -9.365079e-01 0.000000e+00
-8.730159e-01 -9.365079e-01 0.000000e+00
-8.412698e-01 -9.365079e-01 0.000000e+00
-8.095238e-01 -9.365079e-01 0.000000e+00
-7.777778e-01 -9.365079e-01 0.000000e+00
-7.460317e-01 -9.365079e-01 0.000000e+00
-7.142857e-01 -9.365079e-01 0.000000e+00
-6.825397e-01 -9.365079e-01 0.000000e+00
-6.507937e-01 -9.365079e-01 0.000000e+00
-6.190476e-01 -9.365079e-01 0.000000e+00
-5.873016e-01 -9.365079e-01 0.000000e+00
-5.555556e-01 -9.365079e-01 0.000000e+00
-5.238095e-01 -9.365079e-01 0.000000e+00
-4.920635e-01 -9.365079e-01 0.000000e+00
-4.603175e-01 -9.365079e-01 0.000000e+00
-4.285714e-01 -9.365079e-01 0.000000e+00
-3.968254e-01 -9.365079e-01 0.000000e+00
-3.650794e-01 -9.365079e-01 0.000000e+00
-3.333333e-01 -9.365079e-01 0.000000e+00
-3.015873e-01 -9.365079e-01 0.000000e+00
-2.698413e-01 -9.365079e-01 0.000000e+00
-2.380952e-01 -9.365079e-01 0.000000e+00
-2.063492e-01 -9.365079e-01 0.000000e+00
-1.746032e-01 -9.365079e-01 0.000000e+00
-1.428571e-01 -9.365079e-01 0.000000e+00
-1.111111e-01 -9.365079e-01 0.000000e+00
-7.936508e-02 -9.365079e-01 0.000000e+00
-4.761905e-02 -9.365079e-01 0.000000e+00
-1.587302e-02 -9.365079e-01 0.000000e+00
1.587302e-02 -9.365079e-01 0.000000e+00
4.761905e-02 -9.365079e-01 0.000000e+00
7.936508e-02 -9.365079e-01 0.000000e+00
1.111111e-01 -9.365079e-01 0.000000e+00
1.428571e-01 -9.365079e-01 0.000000e+00
1.746032e-01 -9.365079e-01 0.000000e+00
2.063492e-01 -9.365079e-01 0.000000e+00
2.380952e-01 -9.365079e-01 0.000000e+00
2.698413e-01 -9.365079e-01 0.000000e+00
3.015873e-01 -9.365079e-01 0.000000e+00
3.333333e-01 -9.365079e-01 0.000000e+00
3.650794e-01 -9.365079e-01 0.000000e+00
3.968254e-01 -9.365079e-01 0.000000e+00
4.285714e-01 -9.365079e-01 0.000000e+00
4.603175e-01 -9.365079e-01 0.000000e+00
4.920635e-01 -9.365079e-01 0.000000e+00
5.238095e-01 -9.365079e-01 0.000000e+00
5.555556e-01 -9.365079e-01 0.000000e+00
5.873016e-01 -9.365079e-01 0.000000e+00
6.190476e-01 -9.365079e-01 0.000000e+00
6.507937e-01 -9.365079e-01 0.000000e+00
6.825397e-01 -9.365079e-01 0.000000e+00
7.142857e-01 -9.365079e-01 0.000000e+00
7.460317e-01 -9.365079e-01 0.000000e+00
7.777778e-01 -9.365079e-01 0.000000e+00
8.095238e-01 -9.365079e-01 0.000000e+00
8.412698e-01 -9.365079e-01 0.000000e+00
8.730159e-01 -9.365079e-01 0.000000e+00
9.047619e-01 -9.365079e-01 0.000000e+00
9.365079e-01 -9.365079e-01 0.000000e+00
9.682540e-01 -9.365079e-01 0.000000e+00
1.000000e+00 -9.365079e-01 0.000000e+00
-1.000000e+00 -9.047619e-01 0.000000e+00
-9.682540e-01 -9.047619e-01 0.000000e+00
-9.365079e-01 -9.047619e-01 0.000000e+00
-9.047619e-01 -9.047619e-01 0.000000e+00
-8.730159e-01 -9.047619e-01 0.000000e+00
-8.412698e-01 -9.047619e-01 0.000000e+00
-8.095238e-01 -9.047619e-01 0.000000e+00
-7.777778e-01 -9.047619e-01 0.000000e+00
-7.460317e-01 -9.047619e-01 0.000000e+00
-7.142857e-01 -9.047619e-01 0.000000e+00
-6.825397e-01 -9.047619e-01 0.000000e+00
-6.507937e-01 -9.047619e-01 0.000000e+00
-6.190476e-01 -9.047619e-01 0.000000e+00
-5.873016e-01 -9.047619e-01 0.000000e+00
-5.555556e-01 -9.047619e-01 0.000000e+00
-5.238095e-01 -9.047619e-01 0.000000e+00
-4.920635e-01 -9.047619e-01 0.000000e+00
-4.603175e-01 -9.047619e-01 0.000000e+00
-4.285714e-01 -9.047619e-01 0.000000e+00
-3.968254e-01 -9.047619e-01 0.000000e+00
-3.650794e-01 -9.047619e-01 0.000000e+00
-3.333333e-01 -9.047619e-01 0.000000e+00
-3.015873e-01 -9.047619e-01 0.000000e+00
-2.698413e-01 -9.047619e-01 0.000000e+00
-2.380952e-01 -9.047619e-01 0.000000e+00
-2.063492e-01 -9.047619e-01 0.000000e+00
-1.746032e-01 -9.047619e-01 0.000000e+00
-1.428571e-01 -9.047619e-01 0.000000e+00
-1.111111e-01 -9.047619e-01 0.000000e+00
-7.936508e-02 -9.047619e-01 0.000000e+00
-4.761905e-02 -9.047619e-01 0.000000e+00
-1.587302e-02 -9.047619e-01 0.000000e+00
1.587302e-02 -9.047619e-01 0.000000e+00
4.761905e-02 -9.047619e-01 0.000000e+00
7.936508e-02 -9.047619e-01 0.000000e+00
1.111111e-01 -9.047619e-01 0.000000e+00
1.428571e-01 -9.047619e-01 0.000000e+00
1.746032e-01 -9.047619e-01 0.000000e+00
2.063492e-01 -9.047619e-01 0.000000e+00
2.380952e-01 -9.047619e-01 0.000000e+00
2.698413e-01 -9.047619e-01 0.000000e+00
3.015873e-01 -9.047619e-01 0.000000e+00
3.333333e-01 -9.047619e-01 0.000000e+00
3.650794e-01 -9.047619e-01 0.000000e+00
3.968254e-01 -9.047619e-01 0.000000e+00
4.285714e-01 -9.047619e-01 0.000000e+00
4.603175e-01 -9.047619e-01 0.000000e+00
4.920635e-01 -9.047619e-01 0.000000e+00
5.238095e-01 -9.047619e-01 0.000000e+00
5.555556e-01 -9.047619e-01 0.000000e+00
5.873016e-01 -9.047619e-01 0.000000e+00
6.190476e-01 -9.047619e-01 0.000000e+00
[...]
POINT_DATA 4096 
SCALARS concentration double 1 
LOOKUP_TABLE default 
1.051496e+00 
1.027433e+00 
1.003643e+00 
9.801936e-01 
9.571146e-01 
9.344305e-01 
9.121659e-01 
8.903476e-01 
8.690040e-01 
8.481648e-01 
8.278615e-01 
8.081270e-01 
7.889965e-01 
7.705069e-01 
7.526975e-01 
7.356096e-01 
7.192867e-01 
7.037743e-01 
6.891198e-01 
6.753722e-01 
6.625821e-01 
6.508007e-01 
6.400802e-01 
6.304724e-01 
6.220286e-01 
6.147988e-01 
6.088314e-01 
6.041746e-01 
6.008757e-01 
5.989601e-01 
5.992954e-01 
6.017477e-01 
6.058360e-01 
6.114000e-01 
6.183433e-01 
6.265907e-01 
6.360753e-01 
6.467336e-01 
6.585043e-01 
6.713277e-01 
6.851460e-01 
6.999033e-01 
7.155458e-01 
7.320222e-01 
7.492818e-01 
7.672760e-01 
7.859608e-01 
8.052951e-01 
8.252401e-01 
8.457594e-01 
8.668189e-01 
8.883863e-01 
9.104316e-01 
9.329265e-01 
9.558447e-01 
9.791612e-01 
1.002853e+00 
1.026899e+00 
1.051278e+00 
1.075971e+00 
1.100961e+00 
1.126232e+00 
1.151767e+00 
1.177552e+00 
1.030939e+00 
1.006483e+00 
9.822905e-01 
9.584290e-01 
9.349292e-01 
9.118155e-01 
8.891126e-01 
8.668470e-01 
8.450477e-01 
8.237454e-01 
8.029724e-01 
7.827630e-01 
7.631535e-01 
7.441827e-01 
7.258916e-01 
7.083240e-01 
6.915256e-01 
6.755449e-01 
6.604326e-01 
6.462413e-01 
6.330253e-01 
6.208406e-01 
6.097436e-01 
5.997913e-01 
5.910401e-01 
5.835448e-01 
5.773588e-01 
5.725343e-01 
5.691231e-01 
5.671552e-01 
5.675848e-01 
5.701795e-01 
5.744588e-01 
5.802619e-01 
5.874902e-01 
5.960644e-01 
6.059127e-01 
6.169664e-01 
6.291589e-01 
6.424258e-01 
6.567044e-01 
6.719348e-01 
6.880595e-01 
7.050237e-01 
7.227737e-01 
7.412587e-01 
7.604326e-01 
7.802525e-01 
8.006783e-01 
8.216722e-01 
8.431989e-01 
8.652257e-01 
8.877215e-01 
9.106579e-01 
9.340078e-01 
9.577463e-01 
9.818502e-01 
1.006298e+00 
1.031068e+00 
1.056143e+00 
1.081505e+00 
1.107137e+00 
1.133024e+00 
1.159152e+00 
1.010867e+00 
9.860097e-01 
9.614080e-01 
9.371282e-01 
9.132004e-01 
8.896489e-01 
8.664985e-01 
8.437754e-01 
8.215088e-01 
7.997302e-01 
7.784729e-01 
7.577723e-01 
7.376663e-01 
7.181951e-01 
6.994019e-01 
6.813324e-01 
6.640352e-01 
6.475618e-01 
6.319661e-01 
6.173046e-01 
6.036360e-01 
5.910210e-01 
5.795212e-01 
5.691992e-01 
5.601171e-01 
5.523355e-01 
5.459135e-01 
5.409080e-01 
5.373752e-01 
5.353511e-01 
5.358796e-01 
5.386241e-01 
5.431069e-01 
5.491666e-01 
5.567014e-01 
5.656269e-01 
5.758654e-01 
5.873422e-01 
5.999849e-01 
6.137232e-01 
6.284896e-01 
6.442197e-01 
6.608517e-01 
6.783276e-01 
6.965904e-01 
7.155869e-01 
7.352690e-01 
7.555921e-01 
7.765144e-01 
7.979971e-01 
8.200041e-01 
8.425015e-01 
8.654582e-01 
8.888448e-01 
9.126344e-01 
9.368017e-01 
9.613234e-01 
9.861776e-01 
1.011344e+00 
1.036804e+00 
1.062541e+00 
1.088537e+00 
1.114777e+00 
1.141248e+00 
9.912959e-01 
9.660339e-01 
9.410192e-01 
9.163161e-01 
8.919541e-01 
8.679575e-01 
8.443508e-01 
8.211604e-01 
7.984155e-01 
7.761480e-01 
7.543921e-01 
7.331844e-01 
7.125641e-01 
6.925732e-01 
6.732567e-01 
6.546626e-01 
6.368422e-01 
6.198499e-01 
6.037434e-01 
5.885832e-01 
5.744329e-01 
5.613581e-01 
5.494265e-01 
5.387068e-01 
5.292675e-01 
5.211764e-01 
5.144986e-01 
5.092970e-01 
5.056324e-01 
5.035482e-01 
5.041797e-01 
5.070822e-01 
5.117825e-01 
5.181182e-01 
5.259831e-01 
5.352867e-01 
5.459443e-01 
5.578742e-01 
5.709971e-01 
5.852367e-01 
6.005199e-01 
6.167773e-01 
6.339430e-01 
6.519550e-01 
6.707531e-01 
6.902818e-01 
7.104910e-01 
7.313343e-01 
7.527685e-01 
7.747538e-01 
7.972529e-01 
8.202317e-01 
8.436582e-01 
8.675031e-01 
8.917389e-01 
9.163406e-01 
9.412847e-01 
9.665494e-01 
9.921148e-01 
1.017962e+00 
1.044074e+00 
1.070435e+00 
1.097030e+00 
1.123844e+00 
9.722517e-01 
9.465835e-01 
9.211527e-01 
8.960221e-01 
8.712204e-01 
8.467718e-01 
8.227008e-01 
7.990339e-01 
7.758002e-01 
7.530315e-01 
7.307631e-01 
7.090326e-01 
6.878804e-01 
6.673502e-01 
6.474887e-01 
6.283462e-01 
6.099768e-01 
5.924380e-01 
5.757913e-01 
5.601017e-01 
5.454377e-01 
5.318709e-01 
5.194752e-01 
5.083264e-01 
4.985008e-01 
4.900736e-01 
4.831178e-01 
4.777030e-01 
4.738951e-01 
4.717465e-01 
4.724852e-01 
4.755549e-01 
4.804888e-01 
4.871226e-01 
4.953445e-01 
5.050564e-01 
5.161652e-01 
5.285812e-01 
5.422173e-01 
5.569906e-01 
5.728217e-01 
5.896358e-01 
6.073626e-01 
6.259362e-01 
6.452928e-01 
6.653750e-01 
6.861303e-01 
7.075107e-01 
7.294719e-01 
7.519728e-01 
7.749756e-01 
7.984455e-01 
8.223502e-01 
8.466602e-01 
8.713481e-01 
8.963886e-01 
9.217585e-01 
9.474364e-01 
9.734023e-01 
9.996378e-01 
1.026126e+00 
1.052851e+00 
1.079799e+00 
1.106955e+00 
9.537666e-01 
9.276912e-01 
9.018419e-01 
8.762802e-01 
8.510342e-01 
8.261275e-01 
8.015848e-01 
7.774327e-01 
7.537000e-01 
7.304187e-01 
7.076242e-01 
6.853552e-01 
6.636533e-01 
6.425636e-01 
6.221347e-01 
6.024191e-01 
5.834735e-01 
5.653588e-01 
5.481404e-01 
5.318879e-01 
5.166754e-01 
5.025808e-01 
4.896852e-01 
4.780724e-01 
4.678273e-01 
4.590341e-01 
4.517749e-01 
4.461272e-01 
4.421636e-01 
4.399458e-01 
4.407962e-01 
4.440439e-01 
4.492301e-01 
4.561876e-01 
4.647971e-01 
4.749513e-01 
4.865474e-01 
4.994860e-01 
5.136718e-01 
5.290138e-01 
5.454261e-01 
5.628283e-01 
5.811453e-01 
6.003068e-01 
6.202460e-01 
6.409029e-01 
6.622235e-01 
6.841579e-01 
7.066607e-01 
7.296898e-01 
7.532071e-01 
7.771770e-01 
8.015674e-01 
8.263485e-01 
8.514930e-01 
8.769759e-01 
9.027741e-01 
9.288665e-01 
9.552334e-01 
9.818570e-01 
1.008721e+00 
1.035809e+00 
1.063108e+00 
1.090604e+00 
9.358782e-01 
9.093924e-01 
8.831223e-01 
8.571265e-01 
8.314319e-01 
8.060618e-01 
7.810406e-01 
7.563948e-01 
7.321533e-01 
7.083481e-01 
6.850144e-01 
6.621913e-01 
6.399219e-01 
6.182523e-01 
5.972330e-01 
5.769186e-01 
5.573684e-01 
5.386467e-01 
5.208229e-01 
5.039717e-01 
4.881729e-01 
4.735115e-01 
4.600766e-01 
4.479609e-01 
4.372591e-01 
4.280663e-01 
4.204748e-01 
4.145721e-01 
4.104385e-01 
4.081463e-01 
4.091131e-01 
4.125510e-01 
4.180111e-01 
4.253218e-01 
4.343542e-01 
4.449894e-01 
4.571131e-01 
4.706151e-01 
4.853902e-01 
5.013391e-01 
5.183687e-01 
5.363923e-01 
5.553298e-01 
5.751067e-01 
5.956532e-01 
6.169069e-01 
6.388119e-01 
6.613170e-01 
6.843757e-01 
7.079453e-01 
7.319870e-01 
7.564654e-01 
7.813480e-01 
8.066052e-01 
8.322101e-01 
8.581378e-01 
8.843657e-01 
9.108730e-01 
9.376406e-01 
9.646510e-01 
9.918880e-01 
1.019337e+00 
1.046984e+00 
1.074816e+00 
9.186027e-01 
8.917031e-01 
8.650111e-01 
8.385797e-01 
8.124339e-01 
7.865965e-01 
7.610915e-01 
7.359453e-01 
7.111867e-01 
6.868475e-01 
6.629628e-01 
6.395717e-01 
6.167181e-01 
5.944494e-01 
5.728175e-01 
5.518790e-01 
5.316958e-01 
5.123356e-01 
4.938718e-01 
4.763843e-01 
4.599594e-01 
4.446892e-01 
4.306720e-01 
4.180105e-01 
4.068109e-01 
3.971804e-01 
3.892240e-01 
3.830410e-01 
3.787215e-01 
3.763492e-01 
3.774357e-01 
3.810774e-01 
3.868362e-01 
3.945341e-01 
4.040294e-01 
4.151894e-01 
4.278858e-01 
4.419961e-01 
4.574041e-01 
4.740011e-01 
4.916861e-01 
5.103661e-01 
5.299557e-01 
5.503762e-01 
5.715548e-01 
5.934273e-01 
6.159357e-01 
6.390278e-01 
6.626561e-01 
6.867776e-01 
7.113532e-01 
7.363474e-01 
7.617280e-01 
7.874657e-01 
8.135339e-01 
8.399081e-01 
8.665663e-01 
8.934883e-01 
9.206553e-01 
9.480507e-01 
9.756587e-01 
1.003465e+00 
1.031457e+00 
1.059622e+00 
9.019000e-01 
8.746063e-01 
8.474993e-01 
8.206364e-01 
7.940421e-01 
7.677387e-01 
7.417498e-01 
7.161014e-01 
6.908221e-01 
6.659433e-01 
6.415000e-01 
6.175312e-01 
5.940806e-01 
5.711968e-01 
5.489329e-01 
5.273473e-01 
5.065043e-01 
4.864748e-01 
4.673365e-01 
4.491744e-01 
4.320814e-01 
4.161577e-01 
4.015113e-01 
3.882564e-01 
3.765123e-01 
3.664006e-01 
3.580412e-01 
3.515480e-01 
3.470237e-01 
3.445645e-01 
3.457516e-01 
3.496073e-01 
3.556919e-01 
3.638152e-01 
3.738191e-01 
3.855532e-01 
3.988731e-01 
4.136416e-01 
4.297302e-01 
4.470198e-01 
4.654011e-01 
4.847744e-01 
5.050490e-01 
5.261416e-01 
5.479770e-01 
5.704892e-01 
5.936188e-01 
6.173127e-01 
6.415229e-01 
6.662062e-01 
6.913234e-01 
7.168394e-01 
7.427222e-01 
7.689431e-01 
7.954759e-01 
8.222969e-01 
8.493847e-01 
8.767196e-01 
9.042838e-01 
9.320610e-01 
9.600364e-01 
9.881962e-01 
1.016528e+00 
1.045020e+00 
8.859330e-01 
8.582358e-01 
8.307135e-01 
8.034180e-01 
7.763731e-01 
7.496004e-01 
7.231230e-01 
6.969663e-01 
6.711583e-01 
6.457302e-01 
6.207165e-01 
5.961557e-01 
5.720912e-01 
5.485718e-01 
5.256519e-01 
5.033913e-01 
4.818565e-01 
4.611214e-01 
4.412677e-01 
4.223859e-01 
4.045756e-01 
3.879458e-01 
3.726150e-01 
3.587104e-01 
3.463666e-01 
3.357221e-01 
3.269151e-01 
3.200772e-01 
3.153263e-01 
3.127733e-01 
3.140801e-01 
3.181748e-01 
3.246228e-01 
3.332193e-01 
3.437857e-01 
3.561506e-01 
3.701503e-01 
3.856310e-01 
4.024503e-01 
4.204781e-01 
4.395963e-01 
4.596983e-01 
4.806880e-01 
5.024781e-01 
5.249915e-01 
5.481605e-01 
5.719249e-01 
5.962308e-01 
6.210300e-01 
6.462794e-01 
6.719402e-01 
6.979777e-01 
7.243606e-01 
7.510609e-01 
7.780532e-01 
8.053146e-01 
8.328244e-01 
8.605638e-01 
8.885157e-01 
9.166647e-01 
9.449967e-01 
9.734987e-01 
1.002159e+00 
1.030967e+00 
8.706856e-01 
8.425927e-01 
8.146591e-01 
7.869344e-01 
7.594414e-01 
7.322007e-01 
7.052347e-01 
6.785679e-01 
6.522278e-01 
6.262447e-01 
6.006526e-01 
5.754893e-01 
5.507975e-01 
5.266258e-01 
5.030289e-01 
4.800679e-01 
4.578112e-01 
4.363353e-01 
4.157258e-01 
3.960784e-01 
3.774996e-01 
3.601075e-01 
3.440322e-01 
3.294156e-01 
3.164097e-01 
3.051733e-01 
2.958667e-01 
2.886431e-01 
2.836400e-01 
2.809850e-01 
2.824116e-01 
2.867681e-01 
2.936220e-01 
3.027480e-01 
3.139409e-01 
3.270034e-01 
3.417488e-01 
3.580043e-01 
3.756121e-01 
3.944303e-01 
4.143315e-01 
4.352024e-01 
4.569417e-01 
4.794588e-01 
5.026752e-01 
5.265218e-01 
5.509379e-01 
5.758693e-01 
6.012682e-01 
6.270918e-01 
6.533021e-01 
6.798651e-01 
7.067506e-01 
7.339313e-01 
7.613829e-01 
7.890834e-01 
8.170131e-01 
8.451542e-01 
8.734905e-01 
9.020075e-01 
9.306918e-01 
9.595314e-01 
9.885153e-01 
1.017633e+00 
8.561843e-01 
8.277030e-01 
7.993647e-01 
7.712167e-01 
7.432807e-01 
7.155761e-01 
6.881243e-01 
6.609488e-01 
6.340759e-01 
6.075352e-01 
5.813596e-01 
5.555861e-01 
5.302564e-01 
5.054182e-01 
4.811260e-01 
4.574414e-01 
4.344342e-01 
4.121831e-01 
3.907770e-01 
3.703165e-01 
3.509149e-01 
3.326997e-01 
3.158135e-01 
3.004145e-01 
2.866748e-01 
2.747775e-01 
2.649097e-01 
2.572520e-01 
2.519656e-01 
2.491997e-01 
2.507450e-01 
2.553912e-01 
2.627023e-01 
2.724244e-01 
2.843182e-01 
2.981542e-01 
3.137186e-01 
3.308168e-01 
3.492743e-01 
3.689366e-01 
3.896671e-01 
4.113460e-01 
4.338671e-01 
4.571379e-01 
4.810786e-01 
5.056195e-01 
5.306999e-01 
5.562659e-01 
5.822704e-01 
6.086716e-01 
6.354325e-01 
6.625204e-01 
6.899060e-01 
7.175635e-01 
7.454697e-01 
7.736038e-01 
8.019472e-01 
8.304831e-01 
8.591966e-01 
8.880739e-01 
9.171028e-01 
9.462720e-01 
9.755714e-01 
1.004992e+00 
8.424637e-01 
8.136040e-01 
7.848700e-01 
7.563073e-01 
7.279358e-01 
6.997741e-01 
6.718421e-01 
6.441620e-01 
6.167590e-01 
5.896611e-01 
5.629000e-01 
5.365116e-01 
5.105363e-01 
4.850204e-01 
4.600172e-01 
4.355883e-01 
4.118038e-01 
3.887441e-01 
3.665006e-01 
3.451782e-01 
3.248964e-01 
3.057922e-01 
2.880213e-01 
2.717600e-01 
2.572038e-01 
2.445643e-01 
2.340619e-01 
2.259116e-01 
2.203046e-01 
2.174176e-01 
2.190796e-01 
2.240497e-01 
2.318807e-01 
2.422794e-01 
2.549620e-01 
2.696592e-01 
2.861253e-01 
3.041410e-01 
3.235139e-01 
3.440763e-01 
3.656831e-01 
3.882083e-01 
4.115422e-01 
4.355910e-01 
4.602746e-01 
4.855235e-01 
5.112774e-01 
5.374836e-01 
5.640962e-01 
5.910748e-01 
6.183839e-01 
6.459924e-01 
6.738725e-01 
7.019999e-01 
7.303528e-01 
7.589118e-01 
7.876596e-01 
8.165808e-01 
8.456614e-01 
8.748890e-01 
9.042521e-01 
9.337406e-01 
9.633451e-01 
9.930572e-01 
8.295583e-01 
8.003328e-01 
7.712149e-01 
7.422486e-01 
7.134524e-01 
6.848435e-01 
6.564402e-01 
6.282634e-01 
6.003364e-01 
5.726856e-01 
5.453411e-01 
5.183369e-01 
4.917119e-01 
4.655107e-01 
4.397849e-01 
4.145945e-01 
3.900092e-01 
3.661099e-01 
3.429895e-01 
3.207559e-01 
2.995340e-01 
2.794698e-01 
2.607327e-01 
2.435185e-01 
2.280495e-01 
2.145714e-01 
2.033456e-01 
1.946317e-01 
1.886587e-01 
1.856392e-01 
1.874147e-01 
1.927513e-01 
2.011799e-01 
2.123534e-01 
2.259295e-01 
2.415897e-01 
2.590505e-01 
2.780654e-01 
2.984230e-01 
3.199433e-01 
3.424729e-01 
3.658811e-01 
3.900561e-01 
4.149041e-01 
4.403455e-01 
4.663119e-01 
4.927444e-01 
5.195921e-01 
5.468111e-01 
5.743629e-01 
6.022141e-01 
6.303354e-01 
6.587010e-01 
6.872883e-01 
7.160770e-01 
7.450495e-01 
7.741899e-01 
8.034841e-01 
8.329194e-01 
8.624846e-01 
8.921694e-01 
9.219647e-01 
9.518621e-01 
9.818540e-01 
8.175050e-01 
7.879270e-01 
7.584394e-01 
7.290837e-01 
6.998768e-01 
6.708341e-01 
6.419722e-01 
6.133103e-01 
5.848697e-01 
5.566748e-01 
5.287535e-01 
5.011376e-01 
4.738638e-01 
4.469745e-01 
4.205191e-01 
3.945553e-01 
3.691507e-01 
3.443848e-01 
3.203509e-01 
2.971579e-01 
2.749348e-01 
2.538354e-01 
2.340428e-01 
2.157735e-01 
1.992797e-01 
1.848475e-01 
1.727898e-01 
1.634248e-01 
1.570300e-01 
1.538652e-01 
1.557500e-01 
1.615067e-01 
1.706304e-01 
1.826998e-01 
1.972950e-01 
2.140362e-01 
2.325958e-01 
2.526980e-01 
2.741127e-01 
2.966483e-01 
3.201451e-01 
3.444691e-01 
3.695091e-01 
3.951724e-01 
4.213810e-01 
4.480689e-01 
4.751797e-01 
5.026651e-01 
5.304839e-01 
5.586001e-01 
5.869828e-01 
6.156051e-01 
6.444433e-01 
6.734768e-01 
7.026874e-01 
7.320591e-01 
7.615775e-01 
7.912301e-01 
8.210056e-01 
8.508940e-01 
8.808861e-01 
9.109739e-01 
9.411500e-01 
9.714079e-01 
8.063281e-01 
7.764081e-01 
7.465674e-01 
7.168402e-01 
6.872406e-01 
6.577819e-01 
6.284789e-01 
5.993486e-01 
5.704104e-01 
5.416861e-01 
5.132010e-01 
4.849843e-01 
4.570697e-01 
4.294970e-01 
4.023124e-01 
3.755705e-01 
3.493356e-01 
3.236837e-01 
2.987054e-01 
2.745090e-01 
2.512250e-01 
2.290132e-01 
2.080692e-01 
1.886305e-01 
1.709816e-01 
1.554564e-01 
1.424326e-01 
1.323072e-01 
1.254210e-01 
1.220965e-01 
1.240857e-01 
1.303305e-01 
1.402739e-01 
1.533912e-01 
1.691570e-01 
1.871150e-01 
2.068883e-01 
2.281705e-01 
2.507143e-01 
2.743191e-01 
2.988216e-01 
3.240881e-01 
3.500097e-01 
3.764967e-01 
4.034746e-01 
4.308809e-01 
4.586628e-01 
4.867758e-01 
5.151817e-01 
5.438480e-01 
5.727467e-01 
6.018535e-01 
6.311473e-01 
6.606097e-01 
6.902247e-01 
7.199780e-01 
7.498572e-01 
7.798511e-01 
8.099500e-01 
8.401451e-01 
8.704285e-01 
9.007932e-01 
9.312329e-01 
9.617419e-01 
7.959515e-01 
7.657324e-01 
7.355665e-01 
7.054942e-01 
6.755285e-01 
6.456807e-01 
6.159635e-01 
5.863915e-01 
5.569816e-01 
5.277531e-01 
4.987280e-01 
4.699324e-01 
4.413965e-01 
4.131564e-01 
3.852544e-01 
3.577411e-01 
3.306759e-01 
3.041295e-01 
2.781871e-01 
2.529527e-01 
2.285553e-01 
2.051574e-01 
1.829635e-01 
1.622302e-01 
1.432757e-01 
1.264886e-01 
1.123290e-01 
1.013031e-01 
9.383630e-02 
9.033610e-02 
9.241819e-02 
9.923552e-02 
1.101606e-01 
1.245197e-01 
1.416402e-01 
1.609719e-01 
1.820836e-01 
2.046407e-01 
2.283825e-01 
2.531038e-01 
2.786420e-01 
3.048678e-01 
3.316774e-01 
3.589864e-01 
3.867257e-01 
4.148379e-01 
4.432750e-01 
4.719970e-01 
5.009700e-01 
5.301651e-01 
5.595576e-01 
5.891265e-01 
6.188534e-01 
6.487224e-01 
6.787196e-01 
7.088329e-01 
7.390517e-01 
7.693664e-01 
7.997687e-01 
8.302513e-01 
8.608075e-01 
8.914313e-01 
9.221175e-01 
9.528612e-01 
7.866312e-01 
7.561125e-01 
7.256372e-01 
6.952379e-01 
6.649252e-01 
6.347087e-01 
6.045990e-01 
5.746080e-01 
5.447498e-01 
5.150403e-01 
4.854984e-01 
4.561463e-01 
4.270106e-01 
3.981227e-01 
3.695204e-01 
3.412485e-01 
3.133600e-01 
2.859177e-01 
2.589982e-01 
2.326970e-01 
2.071374e-01 
1.824794e-01 
1.589313e-01 
1.367634e-01 
1.163254e-01 
9.806647e-02 
8.254949e-02 
7.043879e-02 
6.227424e-02 
5.857890e-02 
6.075118e-02 
6.825993e-02 
8.038716e-02 
9.624275e-02 
1.149418e-01 
1.358217e-01 
1.583994e-01 
1.823190e-01 
2.073148e-01 
2.331843e-01 
2.597724e-01 
2.869583e-01 
3.146467e-01 
3.427611e-01 
3.712395e-01 
4.000314e-01 
4.290949e-01 
4.583952e-01 
4.879031e-01 
5.175941e-01 
5.474472e-01 
5.774447e-01 
6.075711e-01 
6.378132e-01 
6.681595e-01 
6.985999e-01 
7.291257e-01 
7.597290e-01 
7.904030e-01 
8.211416e-01 
8.519395e-01 
8.827918e-01 
9.136942e-01 
9.446429e-01 
7.783487e-01 
7.475624e-01 
7.168035e-01 
6.861031e-01 
6.554702e-01 
6.249124e-01 
5.944382e-01 
5.640571e-01 
5.337803e-01 
5.036207e-01 
4.735935e-01 
4.437172e-01 
4.140137e-01 
3.845097e-01 
3.552371e-01 
3.262338e-01 
2.975441e-01 
2.692209e-01 
2.413291e-01 
2.139520e-01 
1.872009e-01 
1.612258e-01 
1.362288e-01 
1.124830e-01 
9.036089e-02 
7.037203e-02 
5.320251e-02 
3.975895e-02 
3.074053e-02 
2.682868e-02 
2.908335e-02 
3.743569e-02 
5.107137e-02 
6.876817e-02 
8.931728e-02 
1.119366e-01 
1.361055e-01 
1.614638e-01 
1.877541e-01 
2.147881e-01 
2.424255e-01 
2.705592e-01 
2.991060e-01 
3.280000e-01 
3.571888e-01 
3.866297e-01 
4.162880e-01 
4.461350e-01 
4.761467e-01 
5.063032e-01 
5.365875e-01 
5.669852e-01 
5.974841e-01 
6.280735e-01 
6.587442e-01 
6.894883e-01 
7.202988e-01 
7.511695e-01 
7.820951e-01 
8.130708e-01 
8.440923e-01 
8.751559e-01 
9.062581e-01 
9.373960e-01 
7.711051e-01 
7.400769e-01 
7.090623e-01 
6.780907e-01 
6.471695e-01 
6.163044e-01 
5.855015e-01 
5.547681e-01 
5.241123e-01 
4.935441e-01 
4.630750e-01 
4.327195e-01 
4.024948e-01 
3.724221e-01 
3.425267e-01 
3.128381e-01 
2.833906e-01 
2.542250e-01 
2.253921e-01 
1.969596e-01 
1.690204e-01 
1.417036e-01 
1.151897e-01 
8.973474e-02 
6.571174e-02 
4.367654e-02 
2.444505e-02 
9.322218e-03 
-7.463393e-04 
-4.935272e-03 
-2.443552e-03 
6.817111e-03 
2.241216e-02 
4.243030e-02 
6.514160e-02 
8.968216e-02 
1.155374e-01 
1.423733e-01 
1.699621e-01 
1.981425e-01 
2.267970e-01 
2.558377e-01 
2.851970e-01 
3.148225e-01 
3.446725e-01 
3.747138e-01 
4.049192e-01 
4.352665e-01 
4.657375e-01 
4.963168e-01 
5.269915e-01 
5.577507e-01 
5.885852e-01 
6.194869e-01 
6.504489e-01 
6.814652e-01 
7.125307e-01 
7.436406e-01 
7.747911e-01 
8.059785e-01 
8.371997e-01 
8.684519e-01 
8.997325e-01 
9.310393e-01 
7.649490e-01 
7.337078e-01 
7.024676e-01 
6.712571e-01 
6.400821e-01 
6.089464e-01 
5.778543e-01 
5.468108e-01 
5.158214e-01 
4.848930e-01 
4.540338e-01 
4.232540e-01 
3.925661e-01 
3.619857e-01 
3.315306e-01 
3.012217e-01 
2.710825e-01 
2.411407e-01 
2.114321e-01 
1.820055e-01 
1.529296e-01 
1.243012e-01 
9.625899e-02 
6.900892e-02 
4.287559e-02 
1.842383e-02 
-2.876930e-03 
-1.950630e-02 
-3.069098e-02 
-3.619330e-02 
-3.215292e-02 
-2.098273e-02 
-4.217931e-03 
1.779823e-02 
4.297473e-02 
6.955726e-02 
9.712510e-02 
1.254150e-01 
1.542521e-01 
1.835150e-01 
2.131161e-01 
2.429908e-01 
2.730901e-01 
3.033763e-01 
3.338196e-01 
3.643964e-01 
3.950874e-01 
4.258772e-01 
4.567527e-01 
4.877033e-01 
5.187200e-01 
5.497951e-01 
5.809222e-01 
6.120956e-01 
6.433107e-01 
6.745633e-01 
7.058497e-01 
7.371667e-01 
7.685117e-01 
7.998820e-01 
8.312756e-01 
8.626905e-01 
8.941249e-01 
9.255773e-01 
7.599312e-01 
7.285075e-01 
6.970731e-01 
6.656574e-01 
6.342650e-01 
6.028983e-01 
5.715600e-01 
5.402529e-01 
5.089804e-01 
4.777467e-01 
4.465567e-01 
4.154169e-01 
3.843351e-01 
3.533209e-01 
3.223855e-01 
2.915409e-01 
2.608010e-01 
2.301821e-01 
1.997053e-01 
1.694003e-01 
1.393087e-01 
1.094878e-01 
8.001769e-02 
5.101167e-02 
2.263808e-02 
-3.760533e-03 
-2.658374e-02 
-4.521250e-02 
-5.918925e-02 
-6.695334e-02 
-6.055322e-02 
-4.639027e-02 
-2.736385e-02 
-3.683930e-03 
2.364293e-02 
5.221158e-02 
8.138732e-02 
1.110091e-01 
1.409687e-01 
1.711908e-01 
2.016212e-01 
2.322200e-01 
2.629570e-01 
2.938091e-01 
3.247579e-01 
3.557892e-01 
3.868910e-01 
4.180538e-01 
4.492697e-01 
4.805320e-01 
5.118352e-01 
5.431746e-01 
5.745462e-01 
6.059465e-01 
6.373727e-01 
6.688220e-01 
7.002922e-01 
7.317815e-01 
7.632879e-01 
7.948101e-01 
8.263467e-01 
8.578964e-01 
8.894581e-01 
9.210310e-01 
7.561253e-01 
7.245493e-01 
6.929517e-01 
6.613645e-01 
6.297915e-01 
5.982341e-01 
5.666937e-01 
5.351715e-01 
5.036693e-01 
4.721889e-01 
4.407326e-01 
4.093035e-01 
3.779052e-01 
3.465421e-01 