# vtk DataFile Version 2.0 
Quadtree Mesh 
ASCII 
DATASET UNSTRUCTURED_GRID 
POINTS 4096 double 
-1.000000e+00 -1.000000e+00 0.000000e+00
-9.682540e-01 -1.000000e+00 0.000000e+00
-9.365079e-01 -1.000000e+00 0.000000e+00
-9.047619e-01 -1.000000e+00 0.000000e+00
-8.730159e-01 -1.000000e+00 0.000000e+00
-8.412698e-01 -1.000000e+00 0.000000e+00
-8.095238e-01 -1.000000e+00 0.000000e+00
-7.777778e-01 -1.000000e+00 0.000000e+00
-7.460317e-01 -1.000000e+00 0.000000e+00
-7.142857e-01 -1.000000e+00 0.000000e+00
-6.825397e-01 -1.000000e+00 0.000000e+00
-6.507937e-01 -1.000000e+00 0.000000e+00
-6.190476e-01 -1.000000e+00 0.000000e+00
-5.873016e-01 -1.000000e+00 0.000000e+00
-5.555556e-01 -1.000000e+00 0.000000e+00
-5.238095e-01 -1.000000e+00 0.000000e+00
-4.920635e-01 -1.000000e+00 0.000000e+00
-4.603175e-01 -1.000000e+00 0.000000e+00
-4.285714e-01 -1.000000e+00 0.000000e+00
-3.968254e-01 -1.000000e+00 0.000000e+00
-3.650794e-01 -1.000000e+00 0.000000e+00
-3.333333e-01 -1.000000e+00 0.000000e+00
-3.015873e-01 -1.000000e+00 0.000000e+00
-2.698413e-01 -1.000000e+00 0.000000e+00
-2.380952e-01 -1.000000e+00 0.000000e+00
-2.063492e-01 -1.000000e+00 0.000000e+00
-1.746032e-01 -1.000000e+00 0.000000e+00
-1.428571e-01 -1.000000e+00 0.000000e+00
-1.111111e-01 -1.000000e+00 0.000000e+00
-7.936508e-02 -1.000000e+00 0.000000e+00
-4.761905e-02 -1.000000e+00 0.000000e+00
-1.587302e-02 -1.000000e+00 0.000000e+00
1.587302e-02 -1.000000e+00 0.000000e+00
4.761905e-02 -1.000000e+00 0.000000e+00
7.936508e-02 -1.000000e+00 0.000000e+00
1.111111e-01 -1.000000e+00 0.000000e+00
1.428571e-01 -1.000000e+00 0.000000e+00
1.746032e-01 -1.000000e+00 0.000000e+00
2.063492e-01 -1.000000e+00 0.000000e+00
2.380952e-01 -1.000000e+00 0.000000e+00
2.698413e-01 -1.000000e+00 0.000000e+00
3.015873e-01 -1.000000e+00 0.000000e+00
3.333333e-01 -1.000000e+00 0.000000e+00
3.650794e-01 -1.000000e+00 0.000000e+00
3.968254e-01 -1.000000e+00 0.000000e+00
4.285714e-01 -1.000000e+00 0.000000e+00
4.603175e-01 -1.000000e+00 0.000000e+00
4.920635e-01 -1.000000e+00 0.000000e+00
5.238095e-01 -1.000000e+00 0.000000e+00
5.555556e-01 -1.000000e+00 0.000000e+00
5.873016e-01 -1.000000e+00 0.000000e+00
6.190476e-01 -1.000000e+00 0.000000e+00
6.507937e-01 -1.000000e+00 0.000000e+00
6.825397e-01 -1.000000e+00 0.000000e+00
7.142857e-01 -1.000000e+00 0.000000e+00
7.460317e-01 -1.000000e+00 0.000000e+00
7.777778e-01 -1.000000e+00 0.000000e+00
8.095238e-01 -1.000000e+00 0.000000e+00
8.412698e-01 -1.000000e+00 0.000000e+00
8.730159e-01 -1.000000e+00 0.000000e+00
9.047619e-01 -1.000000e+00 0.000000e+00
9.365079e-01 -1.000000e+00 0.000000e+00
9.682540e-01 -1.000000e+00 0.000000e+00
1.000000e+00 -1.000000e+00 0.000000e+00
-1.000000e+00 -9.682540e-01 0.000000e+00
-9.682540e-01 -9.682540e-01 0.000000e+00
-9.365079e-01 -9.682540e-01 0.000000e+00
-9.047619e-01 -9.682540e-01 0.000000e+00
-8.730159e-01 -9.682540e-01 0.000000e+00
-8.412698e-01 -9.682540e-01 0.000000e+00
-8.095238e-01 -9.682540e-01 0.000000e+00
-7.777778e-01 -9.682540e-01 0.000000e+00
-7.460317e-01 -9.682540e-01 0.000000e+00
-7.142857e-01 -9.682540e-01 0.000000e+00
-6.825397e-01 -9.682540e-01 0.000000e+00
-6.507937e-01 -9.682540e-01 0.000000e+00
-6.190476e-01 -9.682540e-01 0.000000e+00
-5.873016e-01 -9.682540e-01 0.000000e+00
-5.555556e-01 -9.682540e-01 0.000000e+00
-5.238095e-01 -9.682540e-01 0.000000e+00
-4.920635e-01 -9.682540e-01 0.000000e+00
-4.603175e-01 -9.682540e-01 0.000000e+00
-4.285714e-01 -9.682540e-01 0.000000e+00
-3.968254e-01 -9.682540e-01 0.000000e+00
-3.650794e-01 -9.682540e-01 0.000000e+00
-3.333333e-01 -9.682540e-01 0.000000e+00
-3.015873e-01 -9.682540e-01 0.000000e+00
-2.698413e-01 -9.682540e-01 0.000000e+00
-2.380952e-01 -9.682540e-01 0.000000e+00
-2.063492e-01 -9.682540e-01 0.000000e+00
-1.746032e-01 -9.682540e-01 0.000000e+00
-1.428571e-01 -9.682540e-01 0.000000e+00
-1.111111e-01 -9.682540e-01 0.000000e+00
-7.936508e-02 -9.682540e-01 0.000000e+00
-4.761905e-02 -9.682540e-01 0.000000e+00
-1.587302e-02 -9.682540e-01 0.000000e+00
1.587302e-02 -9.682540e-01 0.000000e+00
4.761905e-02 -9.682540e-01 0.000000e+00
7.936508e-02 -9.682540e-01 0.000000e+00
1.111111e-01 -9.682540e-01 0.000000e+00
1.428571e-01 -9.682540e-01 0.000000e+00
1.746032e-01 -9.682540e-01 0.000000e+00
2.063492e-01 -9.682540e-01 0.000000e+00
2.380952e-01 -9.682540e-01 0.000000e+00
2.698413e-01 -9.682540e-01 0.000000e+00
3.015873e-01 -9.682540e-01 0.000000e+00
3.333333e-01 -9.682540e-01 0.000000e+00
3.650794e-01 -9.682540e-01 0.000000e+00
3.968254e-01 -9.682540e-01 0.000000e+00
4.285714e-01 -9.682540e-01 0.000000e+00
4.603175e-01 -9.682540e-01 0.000000e+00
4.920635e-01 -9.682540e-01 0.000000e+00
5.238095e-01 -9.682540e-01 0.000000e+00
5.555556e-01 -9.682540e-01 0.000000e+00
5.873016e-01 -9.682540e-01 0.000000e+00
6.190476e-01 -9.682540e-01 0.000000e+00
6.507937e-01 -9.682540e-01 0.000000e+00
6.825397e-01 -9.682540e-01 0.000000e+00
7.142857e-01 -9.682540e-01 0.000000e+00
7.460317e-01 -9.682540e-01 0.000000e+00
7.777778e-01 -9.682540e-01 0.000000e+00
8.095238e-01 -9.682540e-01 0.000000e+00
8.412698e-01 -9.682540e-01 0.000000e+00
8.730159e-01 -9.682540e-01 0.000000e+00
9.047619e-01 -9.682540e-01 0.000000e+00
9.365079e-01 -9.682540e-01 0.000000e+00
9.682540e-01 -9.682540e-01 0.000000e+00
1.000000e+00 -9.682540e-01 0.000000e+00
-1.000000e+00 -9.365079e-01 0.000000e+00
-9.682540e-01 -9.365079e-01 0.000000e+00
-9.365079e-01 -9.365079e-01 0.000000e+00
-9.047619e-01 -9.365079e-01 0.000000e+00
-8.730159e-01 -9.365079e-01 0.000000e+00
-8.412698e-01 -9.365079e-01 0.000000e+00
-8.095238e-01 -9.365079e-01 0.000000e+00
-7.777778e-01 -9.365079e-01 0.000000e+00
-7.460317e-01 -9.365079e-01 0.000000e+00
-7.142857e-01 -9.365079e-01 0.000000e+00
-6.825397e-01 -9.365079e-01 0.000000e+00
-6.507937e-01 -9.365079e-01 0.000000e+00
-6.190476e-01 -9.365079e-01 0.000000e+00
-5.873016e-01 -9.365079e-01 0.000000e+00
-5.555556e-01 -9.365079e-01 0.000000e+00
-5.238095e-01 -9.365079e-01 0.000000e+00
-4.920635e-01 -9.365079e-01 0.000000e+00
-4.603175e-01 -9.365079e-01 0.000000e+00
-4.285714e-01 -9.365079e-01 0.000000e+00
-3.968254e-01 -9.365079e-01 0.000000e+00
-3.650794e-01 -9.365079e-01 0.000000e+00
-3.333333e-01 -9.365079e-01 0.000000e+00
-3.015873e-01 -9.365079e-01 0.000000e+00
-2.698413e-01 -9.365079e-01 0.000000e+00
-2.380952e-01 -9.365079e-01 0.000000e+00
-2.063492e-01 -9.365079e-01 0.000000e+00
-1.746032e-01 -9.365079e-01 0.000000e+00
-1.428571e-01 -9.365079e-01 0.000000e+00
-1.111111e-01 -9.365079e-01 0.000000e+00
-7.936508e-02 -9.365079e-01 0.000000e+00
-4.761905e-02 -9.365079e-01 0.000000e+00
-1.587302e-02 -9.365079e-01 0.000000e+00
1.587302e-02 -9.365079e-01 0.000000e+00
4.761905e-02 -9.365079e-01 0.000000e+00
7.936508e-02 -9.365079e-01 0.000000e+00
1.111111e-01 -9.365079e-01 0.000000e+00
1.428571e-01 -9.365079e-01 0.000000e+00
1.746032e-01 -9.365079e-01 0.000000e+00
2.063492e-01 -9.365079e-01 0.000000e+00
2.380952e-01 -9.365079e-01 0.000000e+00
2.698413e-01 -9.365079e-01 0.000000e+00
3.015873e-01 -9.365079e-01 0.000000e+00
3.333333e-01 -9.365079e-01 0.000000e+00
3.650794e-01 -9.365079e-01 0.000000e+00
3.968254e-01 -9.365079e-01 0.000000e+00
4.285714e-01 -9.365079e-01 0.000000e+00
4.603175e-01 -9.365079e-01 0.000000e+00
4.920635e-01 -9.365079e-01 0.000000e+00
5.238095e-01 -9.365079e-01 0.000000e+00
5.555556e-01 -9.365079e-01 0.000000e+00
5.873016e-01 -9.365079e-01 0.000000e+00
6.190476e-01 -9.365079e-01 0.000000e+00
6.507937e-01 -9.365079e-01 0.000000e+00
6.825397e-01 -9.365079e-01 0.000000e+00
7.142857e-01 -9.365079e-01 0.000000e+00
7.460317e-01 -9.365079e-01 0.000000e+00
7.777778e-01 -9.365079e-01 0.000000e+00
8.095238e-01 -9.365079e-01 0.000000e+00
8.412698e-01 -9.365079e-01 0.000000e+00
8.730159e-01 -9.365079e-01 0.000000e+00
9.047619e-01 -9.365079e-01 0.000000e+00
9.365079e-01 -9.365079e-01 0.000000e+00
9.682540e-01 -9.365079e-01 0.000000e+00
1.000000e+00 -9.365079e-01 0.000000e+00
-1.000000e+00 -9.047619e-01 0.000000e+00
-9.682540e-01 -9.047619e-01 0.000000e+00
-9.365079e-01 -9.047619e-01 0.000000e+00
-9.047619e-01 -9.047619e-01 0.000000e+00
-8.730159e-01 -9.047619e-01 0.000000e+00
-8.412698e-01 -9.047619e-01 0.000000e+00
-8.095238e-01 -9.047619e-01 0.000000e+00
-7.777778e-01 -9.047619e-01 0.000000e+00
-7.460317e-01 -9.047619e-01 0.000000e+00
-7.142857e-01 -9.047619e-01 0.000000e+00
-6.825397e-01 -9.047619e-01 0.000000e+00
-6.507937e-01 -9.047619e-01 0.000000e+00
-6.190476e-01 -9.047619e-01 0.000000e+00
-5.873016e-01 -9.047619e-01 0.000000e+00
-5.555556e-01 -9.047619e-01 0.000000e+00
-5.238095e-01 -9.047619e-01 0.000000e+00
-4.920635e-01 -9.047619e-01 0.000000e+00
-4.603175e-01 -9.047619e-01 0.000000e+00
-4.285714e-01 -9.047619e-01 0.000000e+00
-3.968254e-01 -9.047619e-01 0.000000e+00
-3.650794e-01 -9.047619e-01 0.000000e+00
-3.333333e-01 -9.047619e-01 0.000000e+00
-3.015873e-01 -9.047619e-01 0.000000e+00
-2.698413e-01 -9.047619e-01 0.000000e+00
-2.380952e-01 -9.047619e-01 0.000000e+00
-2.063492e-01 -9.047619e-01 0.000000e+00
-1.746032e-01 -9.047619e-01 0.000000e+00
-1.428571e-01 -9.047619e-01 0.000000e+00
-1.111111e-01 -9.047619e-01 0.000000e+00
-7.936508e-02 -9.047619e-01 0.000000e+00
-4.761905e-02 -9.047619e-01 0.000000e+00
-1.587302e-02 -9.047619e-01 0.000000e+00
1.587302e-02 -9.047619e-01 0.000000e+00
4.761905e-02 -9.047619e-01 0.000000e+00
7.936508e-02 -9.047619e-01 0.000000e+00
1.111111e-01 -9.047619e-01 0.000000e+00
1.428571e-01 -9.047619e-01 0.000000e+00
1.746032e-01 -9.047619e-01 0.000000e+00
2.063492e-01 -9.047619e-01 0.000000e+00
2.380952e-01 -9.047619e-01 0.000000e+00
2.698413e-01 -9.047619e-01 0.000000e+00
3.015873e-01 -9.047619e-01 0.000000e+00
3.333333e-01 -9.047619e-01 0.000000e+00
3.650794e-01 -9.047619e-01 0.000000e+00
3.968254e-01 -9.047619e-01 0.000000e+00
4.285714e-01 -9.047619e-01 0.000000e+00
4.603175e-01 -9.047619e-01 0.000000e+00
4.920635e-01 -9.047619e-01 0.000000e+00
5.238095e-01 -9.047619e-01 0.000000e+00
5.555556e-01 -9.047619e-01 0.000000e+00
5.873016e-01 -9.047619e-01 0.000000e+00
6.190476e-01 -9.047619e-01 0.000000e+00
[...]
POINT_DATA 4096 
SCALARS concentration double 1 
LOOKUP_TABLE default 
1.466640e+00 
1.445767e+00 
1.425224e+00 
1.405028e+00 
1.385190e+00 
1.365726e+00 
1.346650e+00 
1.327978e+00 
1.309724e+00 
1.291904e+00 
1.274535e+00 
1.257635e+00 
1.241220e+00 
1.225308e+00 
1.209919e+00 
1.195071e+00 
1.180785e+00 
1.167081e+00 
1.153981e+00 
1.141505e+00 
1.129670e+00 
1.118494e+00 
1.107997e+00 
1.098195e+00 
1.089108e+00 
1.080755e+00 
1.073155e+00 
1.066327e+00 
1.060287e+00 
1.055051e+00 
1.050635e+00 
1.047051e+00 
1.044313e+00 
1.042430e+00 
1.041409e+00 
1.041449e+00 
1.042723e+00 
1.045161e+00 
1.048658e+00 
1.053120e+00 
1.058482e+00 
1.064699e+00 
1.071739e+00 
1.079576e+00 
1.088190e+00 
1.097557e+00 
1.107660e+00 
1.118476e+00 
1.129986e+00 
1.142170e+00 
1.155007e+00 
1.168475e+00 
1.182556e+00 
1.197228e+00 
1.212471e+00 
1.228264e+00 
1.244587e+00 
1.261419e+00 
1.278743e+00 
1.296540e+00 
1.314795e+00 
1.333489e+00 
1.352607e+00 
1.372133e+00 
1.442751e+00 
1.421583e+00 
1.400743e+00 
1.380247e+00 
1.360108e+00 
1.340340e+00 
1.320959e+00 
1.301979e+00 
1.283418e+00 
1.265292e+00 
1.247616e+00 
1.230410e+00 
1.213691e+00 
1.197477e+00 
1.181788e+00 
1.166645e+00 
1.152067e+00 
1.138076e+00 
1.124695e+00 
1.111946e+00 
1.099848e+00 
1.088419e+00 
1.077680e+00 
1.067650e+00 
1.058348e+00 
1.049796e+00 
1.042012e+00 
1.035017e+00 
1.028829e+00 
1.023465e+00 
1.018942e+00 
1.015272e+00 
1.012471e+00 
1.010548e+00 
1.009510e+00 
1.009589e+00 
1.010951e+00 
1.013503e+00 
1.017128e+00 
1.021729e+00 
1.027242e+00 
1.033624e+00 
1.040844e+00 
1.048877e+00 
1.057700e+00 
1.067292e+00 
1.077631e+00 
1.088695e+00 
1.100464e+00 
1.112916e+00 
1.126029e+00 
1.139781e+00 
1.154152e+00 
1.169120e+00 
1.184663e+00 
1.200759e+00 
1.217387e+00 
1.234527e+00 
1.252161e+00 
1.270270e+00 
1.288836e+00 
1.307841e+00 
1.327270e+00 
1.347105e+00 
1.419126e+00 
1.397658e+00 
1.376517e+00 
1.355715e+00 
1.335268e+00 
1.315190e+00 
1.295497e+00 
1.276204e+00 
1.257329e+00 
1.238887e+00 
1.220897e+00 
1.203376e+00 
1.186344e+00 
1.169819e+00 
1.153821e+00 
1.138372e+00 
1.123493e+00 
1.109205e+00 
1.095533e+00 
1.082500e+00 
1.070127e+00 
1.058434e+00 
1.047444e+00 
1.037174e+00 
1.027648e+00 
1.018886e+00 
1.010910e+00 
1.003740e+00 
9.973969e-01 
9.918986e-01 
9.872623e-01 
9.835033e-01 
9.806359e-01 
9.786707e-01 
9.776144e-01 
9.777361e-01 
9.791909e-01 
9.818604e-01 
9.856147e-01 
9.903574e-01 
9.960261e-01 
1.002580e+00 
1.009987e+00 
1.018224e+00 
1.027266e+00 
1.037090e+00 
1.047674e+00 
1.058996e+00 
1.071033e+00 
1.083762e+00 
1.097160e+00 
1.111205e+00 
1.125874e+00 
1.141145e+00 
1.156996e+00 
1.173402e+00 
1.190343e+00 
1.207798e+00 
1.225748e+00 
1.244173e+00 
1.263055e+00 
1.282376e+00 
1.302119e+00 
1.322267e+00 
1.395776e+00 
1.374003e+00 
1.352555e+00 
1.331443e+00 
1.310682e+00 
1.290288e+00 
1.270276e+00 
1.250662e+00 
1.231465e+00 
1.212700e+00 
1.194387e+00 
1.176543e+00 
1.159188e+00 
1.142342e+00 
1.126026e+00 
1.110261e+00 
1.095070e+00 
1.080475e+00 
1.066500e+00 
1.053172e+00 
1.040513e+00 
1.028545e+00 
1.017291e+00 
1.006772e+00 
9.970109e-01 
9.880294e-01 
9.798511e-01 
9.724981e-01 
9.659918e-01 
9.603521e-01 
9.555973e-01 
9.517441e-01 
9.488073e-01 
9.467980e-01 
9.457225e-01 
9.458925e-01 
9.474453e-01 
9.502348e-01 
9.541218e-01 
9.590102e-01 
9.648403e-01 
9.715722e-01 
9.791759e-01 
9.876252e-01 
9.968957e-01 
1.006963e+00 
1.017804e+00 
1.029395e+00 
1.041710e+00 
1.054727e+00 
1.068422e+00 
1.082769e+00 
1.097747e+00 
1.113332e+00 
1.129499e+00 
1.146226e+00 
1.163488e+00 
1.181267e+00 
1.199540e+00 
1.218290e+00 
1.237495e+00 
1.257138e+00 
1.277202e+00 
1.297669e+00 
1.372713e+00 
1.350630e+00 
1.328869e+00 
1.307442e+00 
1.286361e+00 
1.265644e+00 
1.245306e+00 
1.225365e+00 
1.205838e+00 
1.186742e+00 
1.168097e+00 
1.149921e+00 
1.132234e+00 
1.115057e+00 
1.098412e+00 
1.082321e+00 
1.066807e+00 
1.051893e+00 
1.037606e+00 
1.023971e+00 
1.011014e+00 
9.987589e-01 
9.872297e-01 
9.764493e-01 
9.664412e-01 
9.572297e-01 
9.488391e-01 
9.412934e-01 
9.346155e-01 
9.288269e-01 
9.239475e-01 
9.199950e-01 
9.169854e-01 
9.149301e-01 
9.138348e-01 
9.140589e-01 
9.157146e-01 
9.186268e-01 
9.226492e-01 
9.276878e-01 
9.336855e-01 
9.406039e-01 
9.484128e-01 
9.570851e-01 
9.665951e-01 
9.769174e-01 
9.880266e-01 
9.998972e-01 
1.012504e+00 
1.025821e+00 
1.039823e+00 
1.054485e+00 
1.069783e+00 
1.085692e+00 
1.102186e+00 
1.119242e+00 
1.136836e+00 
1.154947e+00 
1.173553e+00 
1.192634e+00 
1.212171e+00 
1.232143e+00 
1.252534e+00 
1.273326e+00 
1.349948e+00 
1.327551e+00 
1.305473e+00 
1.283724e+00 
1.262319e+00 
1.241273e+00 
1.220603e+00 
1.200326e+00 
1.180462e+00 
1.161026e+00 
1.142040e+00 
1.123522e+00 
1.105494e+00 
1.087976e+00 
1.070991e+00 
1.054563e+00 
1.038714e+00 
1.023471e+00 
1.008859e+00 
9.949049e-01 
9.816372e-01 
9.690823e-01 
9.572652e-01 
9.462107e-01 
9.359439e-01 
9.264906e-01 
9.178769e-01 
9.101284e-01 
9.032697e-01 
8.973242e-01 
8.923134e-01 
8.882565e-01 
8.851703e-01 
8.830668e-01 
8.819513e-01 
8.822357e-01 
8.839989e-01 
8.870362e-01 
8.911972e-01 
8.963912e-01 
9.025637e-01 
9.096773e-01 
9.177013e-01 
9.266076e-01 
9.363689e-01 
9.469580e-01 
9.583479e-01 
9.705114e-01 
9.834214e-01 
9.970509e-01 
1.011373e+00 
1.026362e+00 
1.041991e+00 
1.058235e+00 
1.075068e+00 
1.092463e+00 
1.110399e+00 
1.128851e+00 
1.147798e+00 
1.167219e+00 
1.187094e+00 
1.207404e+00 
1.228129e+00 
1.249251e+00 
1.327499e+00 
1.304784e+00 
1.282383e+00 
1.260308e+00 
1.238571e+00 
1.217189e+00 
1.196180e+00 
1.175561e+00 
1.155350e+00 
1.135567e+00 
1.116230e+00 
1.097360e+00 
1.078980e+00 
1.061110e+00 
1.043775e+00 
1.026997e+00 
1.010803e+00 
9.952173e-01 
9.802680e-01 
9.659832e-01 
9.523919e-01 
9.395234e-01 
9.274048e-01 
9.160628e-01 
9.055242e-01 
8.958167e-01 
8.869681e-01 
8.790059e-01 
8.719565e-01 
8.658455e-01 
8.606960e-01 
8.565289e-01 
8.533622e-01 
8.512085e-01 
8.500722e-01 
8.504235e-01 
8.522985e-01 
8.554631e-01 
8.597664e-01 
8.651216e-01 
8.714769e-01 
8.787953e-01 
8.870453e-01 
8.961974e-01 
9.062223e-01 
9.170912e-01 
9.287750e-01 
9.412448e-01 
9.544717e-01 
9.684271e-01 
9.830826e-01 
9.984104e-01 
1.014383e+00 
1.030974e+00 
1.048156e+00 
1.065903e+00 
1.084189e+00 
1.102992e+00 
1.122289e+00 
1.142059e+00 
1.162281e+00 
1.182934e+00 
1.204000e+00 
1.225459e+00 
1.305396e+00 
1.282357e+00 
1.259627e+00 
1.237218e+00 
1.215143e+00 
1.193418e+00 
1.172061e+00 
1.151090e+00 
1.130524e+00 
1.110383e+00 
1.090686e+00 
1.071454e+00 
1.052710e+00 
1.034477e+00 
1.016778e+00 
9.996392e-01 
9.830858e-01 
9.671452e-01 
9.518456e-01 
9.372162e-01 
9.232876e-01 
9.100909e-01 
8.976560e-01 
8.860120e-01 
8.751877e-01 
8.652126e-01 
8.561165e-01 
8.479287e-01 
8.406781e-01 
8.343922e-01 
8.290963e-01 
8.248131e-01 
8.215619e-01 
8.193555e-01 
8.181983e-01 
8.186231e-01 
8.206135e-01 
8.239076e-01 
8.283576e-01 
8.338811e-01 
8.404283e-01 
8.479622e-01 
8.564501e-01 
8.658607e-01 
8.761628e-01 
8.873255e-01 
8.993176e-01 
9.121083e-01 
9.256666e-01 
9.399621e-01 
9.549649e-01 
9.706456e-01 
9.869755e-01 
1.003926e+00 
1.021470e+00 
1.039578e+00 
1.058227e+00 
1.077391e+00 
1.097048e+00 
1.117175e+00 
1.137751e+00 
1.158756e+00 
1.180169e+00 
1.201973e+00 
1.283650e+00 
1.260281e+00 
1.237215e+00 
1.214466e+00 
1.192045e+00 
1.169971e+00 
1.148259e+00 
1.126929e+00 
1.106000e+00 
1.085491e+00 
1.065424e+00 
1.045821e+00 
1.026703e+00 
1.008095e+00 
9.900220e-01 
9.725095e-01 
9.555848e-01 
9.392760e-01 
9.236125e-01 
9.086249e-01 
8.943450e-01 
8.808058e-01 
8.680403e-01 
8.560800e-01 
8.449561e-01 
8.346999e-01 
8.253434e-01 
8.169179e-01 
8.094549e-01 
8.029842e-01 
7.975336e-01 
7.931276e-01 
7.897870e-01 
7.875258e-01 
7.863474e-01 
7.868407e-01 
7.889410e-01 
7.923645e-01 
7.969654e-01 
8.026646e-01 
8.094134e-01 
8.171744e-01 
8.259131e-01 
8.355962e-01 
8.461904e-01 
8.576624e-01 
8.699787e-01 
8.831064e-01 
8.970125e-01 
9.116647e-01 
9.270311e-01 
9.430808e-01 
9.597835e-01 
9.771094e-01 
9.950287e-01 
1.013514e+00 
1.032538e+00 
1.052076e+00 
1.072105e+00 
1.092601e+00 
1.113543e+00 
1.134909e+00 
1.156680e+00 
1.178836e+00 
1.262239e+00 
1.238534e+00 
1.215131e+00 
1.192038e+00 
1.169268e+00 
1.146840e+00 
1.124768e+00 
1.103073e+00 
1.081774e+00 
1.060891e+00 
1.040446e+00 
1.020461e+00 
1.000959e+00 
9.819656e-01 
9.635059e-01 
9.456071e-01 
9.282972e-01 
9.116058e-01 
8.955635e-01 
8.802023e-01 
8.655556e-01 
8.516581e-01 
8.385452e-01 
8.262517e-01 
8.148112e-01 
8.042576e-01 
7.946249e-01 
7.859472e-01 
7.782583e-01 
7.715910e-01 
7.659754e-01 
7.614387e-01 
7.580036e-01 
7.556850e-01 
7.544853e-01 
7.550644e-01 
7.572845e-01 
7.608443e-01 
7.656039e-01 
7.714887e-01 
7.784510e-01 
7.864523e-01 
7.954563e-01 
8.054272e-01 
8.163293e-01 
8.281268e-01 
8.407838e-01 
8.542650e-01 
8.685351e-01 
8.835599e-01 
8.993055e-01 
9.157393e-01 
9.328293e-01 
9.505442e-01 
9.688526e-01 
9.877261e-01 
1.007138e+00 
1.027062e+00 
1.047473e+00 
1.068349e+00 
1.089666e+00 
1.111404e+00 
1.133541e+00 
1.156058e+00 
1.241198e+00 
1.217156e+00 
1.193411e+00 
1.169969e+00 
1.146846e+00 
1.124057e+00 
1.101620e+00 
1.079552e+00 
1.057875e+00 
1.036609e+00 
1.015777e+00 
9.954000e-01 
9.755036e-01 
9.561127e-01 
9.372541e-01 
9.189558e-01 
9.012469e-01 
8.841582e-01 
8.677219e-01 
8.519714e-01 
8.369418e-01 
8.226696e-01 
8.091925e-01 
7.965485e-01 
7.847741e-01 
7.739060e-01 
7.639810e-01 
7.550359e-01 
7.471072e-01 
7.402308e-01 
7.344399e-01 
7.297641e-01 
7.262285e-01 
7.238489e-01 
7.226269e-01 
7.232983e-01 
7.256393e-01 
7.293386e-01 
7.342635e-01 
7.403432e-01 
7.475304e-01 
7.557850e-01 
7.650682e-01 
7.753417e-01 
7.865671e-01 
7.987056e-01 
8.117190e-01 
8.255691e-01 
8.402186e-01 
8.556307e-01 
8.717697e-01 
8.886011e-01 
9.060913e-01 
9.242068e-01 
9.429158e-01 
9.621886e-01 
9.819973e-01 
1.002315e+00 
1.023117e+00 
1.044379e+00 
1.066077e+00 
1.088190e+00 
1.110698e+00 
1.133579e+00 
1.220545e+00 
1.196164e+00 
1.172072e+00 
1.148278e+00 
1.124795e+00 
1.101640e+00 
1.078830e+00 
1.056384e+00 
1.034322e+00 
1.012665e+00 
9.914351e-01 
9.706568e-01 
9.503546e-01 
9.305547e-01 
9.112845e-01 
8.925730e-01 
8.744507e-01 
8.569496e-01 
8.401033e-01 
8.239469e-01 
8.085174e-01 
7.938530e-01 
7.799939e-01 
7.669809e-01 
7.548543e-01 
7.436536e-01 
7.334186e-01 
7.241894e-01 
7.160058e-01 
7.089067e-01 
7.029289e-01 
6.981050e-01 
6.944625e-01 
6.920186e-01 
6.907739e-01 
6.915442e-01 
6.940067e-01 
6.978499e-01 
7.029485e-01 
7.092343e-01 
7.166598e-01 
7.251825e-01 
7.347611e-01 
7.453542e-01 
7.569203e-01 
7.694177e-01 
7.828053e-01 
7.970421e-01 
8.120882e-01 
8.279046e-01 
8.444533e-01 
8.616979e-01 
8.796029e-01 
8.981332e-01 
9.172558e-01 
9.369401e-01 
9.571573e-01 
9.778798e-01 
9.990815e-01 
1.020738e+00 
1.042825e+00 
1.065320e+00 
1.088204e+00 
1.111455e+00 
1.200297e+00 
1.175574e+00 
1.151132e+00 
1.126981e+00 
1.103134e+00 
1.079607e+00 
1.056419e+00 
1.033588e+00 
1.011133e+00 
9.890763e-01 
9.674409e-01 
9.462510e-01 
9.255321e-01 
9.053110e-01 
8.856163e-01 
8.664778e-01 
8.479272e-01 
8.299980e-01 
8.127251e-01 
7.961454e-01 
7.802978e-01 
7.652228e-01 
7.509627e-01 
7.375612e-01 
7.250624e-01 
7.135094e-01 
7.029455e-01 
6.934142e-01 
6.849588e-01 
6.776221e-01 
6.714445e-01 
6.664624e-01 
6.627060e-01 
6.601943e-01 
6.589266e-01 
6.598015e-01 
6.623862e-01 
6.663791e-01 
6.716609e-01 
6.781655e-01 
6.858440e-01 
6.946514e-01 
7.045431e-01 
7.154744e-01 
7.274003e-01 
7.402760e-01 
7.540569e-01 
7.686993e-01 
7.841605e-01 
8.003990e-01 
8.173746e-01 
8.350486e-01 
8.533839e-01 
8.723434e-01 
8.918933e-01 
9.120019e-01 
9.326392e-01 
9.537768e-01 
9.753881e-01 
9.974475e-01 
1.019931e+00 
1.042816e+00 
1.066082e+00 
1.089708e+00 
1.180471e+00 
1.155404e+00 
1.130610e+00 
1.106098e+00 
1.081883e+00 
1.057980e+00 
1.034407e+00 
1.011184e+00 
9.883296e-01 
9.658655e-01 
9.438153e-01 
9.222038e-01 
9.010570e-01 
8.804027e-01 
8.602703e-01 
8.406906e-01 
8.216965e-01 
8.033228e-01 
7.856060e-01 
7.685849e-01 
7.523002e-01 
7.367948e-01 
7.221135e-01 
7.083027e-01 
6.954105e-01 
6.834841e-01 
6.725705e-01 
6.627171e-01 
6.539715e-01 
6.463806e-01 
6.399893e-01 
6.348377e-01 
6.309596e-01 
6.283761e-01 
6.270852e-01 
6.280684e-01 
6.307776e-01 
6.349271e-01 
6.404032e-01 
6.471408e-01 
6.550888e-01 
6.641991e-01 
6.744235e-01 
6.857132e-01 
6.980197e-01 
7.112944e-01 
7.254893e-01 
7.405576e-01 
7.564535e-01 
7.731328e-01 
7.905531e-01 
8.086735e-01 
8.274547e-01 
8.468584e-01 
8.668494e-01 
8.873950e-01 
9.084641e-01 
9.300275e-01 
9.520579e-01 
9.745292e-01 
9.974172e-01 
1.020699e+00 
1.044352e+00 
1.068358e+00 
1.161091e+00 
1.135678e+00 
1.110529e+00 
1.085653e+00 
1.061065e+00 
1.036781e+00 
1.012818e+00 
9.891963e-01 
9.659349e-01 
9.430555e-01 
9.205816e-01 
8.985383e-01 
8.769525e-01 
8.558527e-01 
8.352691e-01 
8.152336e-01 
7.957802e-01 
7.769451e-01 
7.587665e-01 
7.412849e-01 
7.245432e-01 
7.085866e-01 
6.934625e-01 
6.792204e-01 
6.659120e-01 
6.535892e-01 
6.423031e-01 
6.321059e-01 
6.230497e-01 
6.151865e-01 
6.085656e-01 
6.032320e-01 
5.992237e-01 
5.965640e-01 
5.952498e-01 
5.963433e-01 
5.991809e-01 
6.034956e-01 
6.091786e-01 
6.161649e-01 
6.244009e-01 
6.338344e-01 
6.444128e-01 
6.560834e-01 
6.687930e-01 
6.824893e-01 
6.971204e-01 
7.126361e-01 
7.289874e-01 
7.461273e-01 
7.640110e-01 
7.825952e-01 
8.018387e-01 
8.217017e-01 
8.421478e-01 
8.631430e-01 
8.846555e-01 
9.066552e-01 
9.291140e-01 
9.520056e-01 
9.753051e-01 
9.989893e-01 
1.023036e+00 
1.047426e+00 
1.142194e+00 
1.116433e+00 
1.090925e+00 
1.065681e+00 
1.040715e+00 
1.016044e+00 
9.916850e-01 
9.676574e-01 
9.439811e-01 
9.206776e-01 
8.977703e-01 
8.752847e-01 
8.532483e-01 
8.316901e-01 
8.106413e-01 
7.901346e-01 
7.702054e-01 
7.508911e-01 
7.322316e-01 
7.142693e-01 
6.970493e-01 
6.806193e-01 
6.650292e-01 
6.503320e-01 
6.365828e-01 
6.238384e-01 
6.121552e-01 
6.015903e-01 
5.922012e-01 
5.840453e-01 
5.771774e-01 
5.716482e-01 
5.675000e-01 
5.647594e-01 
5.634217e-01 
5.646257e-01 
5.675965e-01 
5.720862e-01 
5.779904e-01 
5.852436e-01 
5.937882e-01 
6.035676e-01 
6.145241e-01 
6.266001e-01 
6.397379e-01 
6.538805e-01 
6.689721e-01 
6.849586e-01 
7.017877e-01 
7.194094e-01 
7.377763e-01 
7.568428e-01 
7.765657e-01 
7.969037e-01 
8.178192e-01 
8.392772e-01 
8.612448e-01 
8.836913e-01 
9.065881e-01 
9.299081e-01 
9.536264e-01 
9.777195e-01 
1.002165e+00 
1.026944e+00 
1.123810e+00 
1.097697e+00 
1.071826e+00 
1.046209e+00 
1.020860e+00 
9.957963e-01 
9.710349e-01 
9.465946e-01 
9.224956e-01 
8.987595e-01 
8.754097e-01 
8.524718e-01 
8.299735e-01 
8.079445e-01 
7.864165e-01 
7.654235e-01 
7.450018e-01 
7.251902e-01 
7.060303e-01 
6.875665e-01 
6.698459e-01 
6.529187e-01 
6.368380e-01 
6.216600e-01 
6.074438e-01 
5.942510e-01 
5.821439e-01 
5.711854e-01 
5.614389e-01 
5.529677e-01 
5.458333e-01 
5.400925e-01 
5.357936e-01 
5.329665e-01 
5.316054e-01 
5.329148e-01 
5.360237e-01 
5.406995e-01 
5.468416e-01 
5.543821e-01 
5.632590e-01 
5.734098e-01 
5.847715e-01 
5.972808e-01 
6.108747e-01 
6.254914e-01 
6.410705e-01 
6.575539e-01 
6.748857e-01 
6.930129e-01 
7.118851e-01 
7.314546e-01 
7.516758e-01 
7.725063e-01 
7.939074e-01 
8.158429e-01 
8.382792e-01 
8.611848e-01 
8.845306e-01 
9.082892e-01 
9.324353e-01 
9.569453e-01 
9.817974e-01 
1.006971e+00 
1.105894e+00 
1.079427e+00 
1.053196e+00 
1.027209e+00 
1.001478e+00 
9.760222e-01 
9.508573e-01 
9.260023e-01 
9.014774e-01 
8.773042e-01 
8.535062e-01 
8.301088e-01 
8.071398e-01 
7.846296e-01 
7.626105e-01 
7.411173e-01 
7.201875e-01 
6.998610e-01 
6.801812e-01 
6.611942e-01 
6.429496e-01 
6.255002e-01 
6.089023e-01 
5.932157e-01 
5.785038e-01 
5.648330e-01 
5.522722e-01 
5.408905e-01 
5.307582e-01 
5.219460e-01 
5.145226e-01 
5.085523e-01 
5.040903e-01 
5.011714e-01 
4.997876e-01 
5.012126e-01 
5.044691e-01 
5.093452e-01 
5.157441e-01 
5.235951e-01 
5.328303e-01 
5.433807e-01 
5.551767e-01 
5.681488e-01 
5.822282e-01 
5.973478e-01 
6.134422e-01 
6.304489e-01 
6.483085e-01 
6.669644e-01 
6.863638e-01 
7.064560e-01 
7.271938e-01 
7.485336e-01 
7.704357e-01 
7.928628e-01 
8.157806e-01 
8.391569e-01 
8.629623e-01 
8.871690e-01 
9.117518e-01 
9.366868e-01 
9.619523e-01 
9.875278e-01 
1.088500e+00 
1.061684e+00 
1.035094e+00 
1.008735e+00 
9.826224e-01 
9.567718e-01 
9.312005e-01 
9.059269e-01 
8.809712e-01 
8.563550e-01 
8.321016e-01 
8.082365e-01 
7.847874e-01 
7.617849e-01 
7.392620e-01 
7.172542e-01 
6.957999e-01 
6.749404e-01 
6.547205e-01 
6.351881e-01 
6.163952e-01 
5.983974e-01 
5.812544e-01 
5.650298e-01 
5.497914e-01 
5.356112e-01 
5.225643e-01 
5.107273e-01 
5.001783e-01 
4.909963e-01 
4.832587e-01 
4.770386e-01 
4.723993e-01 
4.693812e-01 
4.679745e-01 
4.695173e-01 
4.729284e-01 
4.780185e-01 
4.846947e-01 
4.928813e-01 
5.025030e-01 
5.134829e-01 
5.257440e-01 
5.392099e-01 
5.538052e-01 
5.694567e-01 
5.860941e-01 
6.036500e-01 
6.220611e-01 
6.412674e-01 
6.612131e-01 
6.818451e-01 
7.031146e-01 
7.249768e-01 
7.473908e-01 
7.703186e-01 
7.937250e-01 
8.175776e-01 
8.418466e-01 
8.665041e-01 
8.915247e-01 
9.168848e-01 
9.425626e-01 
9.685379e-01 
1.071655e+00 
1.044492e+00 
1.017543e+00 
9.908133e-01 
9.643177e-01 
9.380717e-01 
9.120921e-01 
8.863972e-01 
8.610068e-01 
8.359425e-01 
8.112274e-01 
7.868871e-01 
7.629492e-01 
7.394440e-01 
7.164051e-01 
6.938686e-01 
6.718738e-01 
6.504631e-01 
6.296825e-01 
6.095820e-01 
5.902157e-01 
5.716421e-01 
5.539244e-01 
5.371302e-01 
5.213323e-01 
5.066082e-01 
4.930397e-01 
4.807120e-01 
4.697119e-01 
4.601278e-01 
4.520475e-01 
4.455544e-01 
4.407216e-01 
4.375967e-01 
4.361673e-01 
4.378296e-01 
4.414042e-01 
4.467255e-01 
4.537033e-01 
4.622549e-01 
4.722957e-01 
4.837396e-01 
4.965012e-01 
5.104958e-01 
5.256411e-01 
5.418574e-01 
5.590686e-01 
5.772026e-01 
5.961915e-01 
6.159723e-01 
6.364859e-01 
6.576770e-01 
6.794952e-01 
7.018947e-01 
7.248334e-01 
7.482725e-01 
7.721766e-01 
7.965127e-01 
8.212510e-01 
8.463636e-01 
8.718251e-01 
8.976122e-01 
9.237032e-01 
9.500783e-01 
1.055380e+00 
1.027873e+00 
1.000567e+00 
9.734681e-01 
9.465905e-01 
9.199492e-01 
8.935606e-01 
8.674427e-01 
8.416149e-01 
8.160985e-01 
7.909166e-01 
7.660945e-01 
7.416597e-01 
7.176424e-01 
6.940761e-01 
6.709975e-01 
6.484465e-01 
6.264665e-01 
6.051048e-01 
5.844131e-01 
5.644477e-01 
5.452700e-01 
5.269464e-01 
5.095491e-01 
4.931559e-01 
4.778504e-01 
4.637217e-01 
4.508639e-01 
4.393741e-01 
4.293516e-01 
4.208961e-01 
4.141033e-01 
4.090584e-01 
4.058180e-01 
4.043662e-01 
4.061495e-01 
4.098983e-01 
4.154711e-01 
4.227785e-01 
4.317288e-01 
4.422257e-01 
4.541725e-01 
4.674736e-01 
4.820355e-01 
4.977679e-01 
5.145840e-01 
5.324018e-01 
5.511439e-01 
5.707384e-01 
5.911183e-01 
6.122218e-01 
6.339914e-01 
6.563754e-01 
6.793267e-01 
7.028025e-01 
7.267634e-01 
7.511735e-01 
7.760000e-01 
8.012128e-01 
8.267844e-01 
8.526895e-01 
8.789050e-01 
9.054097e-01 
9.321843e-01 
1.039698e+00 
1.011851e+00 
9.841911e-01 
9.567259e-01 
9.294683e-01 
9.024330e-01 
8.756360e-01 
8.490947e-01 
8.228281e-01 
7.968570e-01 
7.712044e-01 
7.458951e-01 
7.209564e-01 
6.964185e-01 
6.723145e-01 
6.486813e-01 
6.255591e-01 
6.029923e-01 
5.810293e-01 
5.597232e-01 
5.391325e-01 
5.193213e-01 
5.003595e-01 
4.823235e-01 
4.652966e-01 
4.493690e-01 
4.346377e-01 
4.212063e-01 
4.091834e-01 
3.986811e-01 
3.898131e-01 
3.826900e-01 
3.774114e-01 
3.740452e-01 
3.725715e-01 
3.744768e-01 
3.784136e-01 
3.842621e-01 
3.919317e-01 
4.013188e-01 
4.123139e-01 
4.248071e-01 
4.386913e-01 
4.538627e-01 
4.702222e-01 
4.876757e-01 
5.061345e-01 
5.255162e-01 
5.457443e-01 
5.667484e-01 
5.884636e-01 
6.108308e-01 
6.337969e-01 
6.573138e-01 
6.813380e-01 
7.058299e-01 
7.307533e-01 
7.560756e-01 
7.817669e-01 
8.077999e-01 
8.341499e-01 
8.607941e-01 
8.877119e-01 
9.148843e-01 
1.024640e+00 
9.964579e-01 
9.684488e-01 
9.406204e-01 
9.129858e-01 
8.855588e-01 
8.583548e-01 
8.313907e-01 
8.046850e-01 
7.782578e-01 
7.521316e-01 
7.263308e-01 
7.008825e-01 
6.758163e-01 
6.511653e-01 