# vtk DataFile Version 2.0 
Quadtree Mesh 
ASCII 
DATASET UNSTRUCTURED_GRID 
POINTS 4096 double 
-1.000000e+00 -1.000000e+00 0.000000e+00
-9.682540e-01 -1.000000e+00 0.000000e+00
-9.365079e-01 -1.000000e+00 0.000000e+00
-9.047619e-01 -1.000000e+00 0.000000e+00
-8.730159e-01 -1.000000e+00 0.000000e+00
-8.412698e-01 -1.000000e+00 0.000000e+00
-8.095238e-01 -1.000000e+00 0.000000e+00
-7.777778e-01 -1.000000e+00 0.000000e+00
-7.460317e-01 -1.000000e+00 0.000000e+00
-7.142857e-01 -1.000000e+00 0.000000e+00
-6.825397e-01 -1.000000e+00 0.000000e+00
-6.507937e-01 -1.000000e+00 0.000000e+00
-6.190476e-01 -1.000000e+00 0.000000e+00
-5.873016e-01 -1.000000e+00 0.000000e+00
-5.555556e-01 -1.000000e+00 0.000000e+00
-5.238095e-01 -1.000000e+00 0.000000e+00
-4.920635e-01 -1.000000e+00 0.000000e+00
-4.603175e-01 -1.000000e+00 0.000000e+00
-4.285714e-01 -1.000000e+00 0.000000e+00
-3.968254e-01 -1.000000e+00 0.000000e+00
-3.650794e-01 -1.000000e+00 0.000000e+00
-3.333333e-01 -1.000000e+00 0.000000e+00
-3.015873e-01 -1.000000e+00 0.000000e+00
-2.698413e-01 -1.000000e+00 0.000000e+00
-2.380952e-01 -1.000000e+00 0.000000e+00
-2.063492e-01 -1.000000e+00 0.000000e+00
-1.746032e-01 -1.000000e+00 0.000000e+00
-1.428571e-01 -1.000000e+00 0.000000e+00
-1.111111e-01 -1.000000e+00 0.000000e+00
-7.936508e-02 -1.000000e+00 0.000000e+00
-4.761905e-02 -1.000000e+00 0.000000e+00
-1.587302e-02 -1.000000e+00 0.000000e+00
1.587302e-02 -1.000000e+00 0.000000e+00
4.761905e-02 -1.000000e+00 0.000000e+00
7.936508e-02 -1.000000e+00 0.000000e+00
1.111111e-01 -1.000000e+00 0.000000e+00
1.428571e-01 -1.000000e+00 0.000000e+00
1.746032e-01 -1.000000e+00 0.000000e+00
2.063492e-01 -1.000000e+00 0.000000e+00
2.380952e-01 -1.000000e+00 0.000000e+00
2.698413e-01 -1.000000e+00 0.000000e+00
3.015873e-01 -1.000000e+00 0.000000e+00
3.333333e-01 -1.000000e+00 0.000000e+00
3.650794e-01 -1.000000e+00 0.000000e+00
3.968254e-01 -1.000000e+00 0.000000e+00
4.285714e-01 -1.000000e+00 0.000000e+00
4.603175e-01 -1.000000e+00 0.000000e+00
4.920635e-01 -1.000000e+00 0.000000e+00
5.238095e-01 -1.000000e+00 0.000000e+00
5.555556e-01 -1.000000e+00 0.000000e+00
5.873016e-01 -1.000000e+00 0.000000e+00
6.190476e-01 -1.000000e+00 0.000000e+00
6.507937e-01 -1.000000e+00 0.000000e+00
6.825397e-01 -1.000000e+00 0.000000e+00
7.142857e-01 -1.000000e+00 0.000000e+00
7.460317e-01 -1.000000e+00 0.000000e+00
7.777778e-01 -1.000000e+00 0.000000e+00
8.095238e-01 -1.000000e+00 0.000000e+00
8.412698e-01 -1.000000e+00 0.000000e+00
8.730159e-01 -1.000000e+00 0.000000e+00
9.047619e-01 -1.000000e+00 0.000000e+00
9.365079e-01 -1.000000e+00 0.000000e+00
9.682540e-01 -1.000000e+00 0.000000e+00
1.000000e+00 -1.000000e+00 0.000000e+00
-1.000000e+00 -9.682540e-01 0.000000e+00
-9.682540e-01 -9.682540e-01 0.000000e+00
-9.365079e-01 -9.682540e-01 0.000000e+00
-9.047619e-01 -9.682540e-01 0.000000e+00
-8.730159e-01 -9.682540e-01 0.000000e+00
-8.412698e-01 -9.682540e-01 0.000000e+00
-8.095238e-01 -9.682540e-01 0.000000e+00
-7.777778e-01 -9.682540e-01 0.000000e+00
-7.460317e-01 -9.682540e-01 0.000000e+00
-7.142857e-01 -9.682540e-01 0.000000e+00
-6.825397e-01 -9.682540e-01 0.000000e+00
-6.507937e-01 -9.682540e-01 0.000000e+00
-6.190476e-01 -9.682540e-01 0.000000e+00
-5.873016e-01 -9.682540e-01 0.000000e+00
-5.555556e-01 -9.682540e-01 0.000000e+00
-5.238095e-01 -9.682540e-01 0.000000e+00
-4.920635e-01 -9.682540e-01 0.000000e+00
-4.603175e-01 -9.682540e-01 0.000000e+00
-4.285714e-01 -9.682540e-01 0.000000e+00
-3.968254e-01 -9.682540e-01 0.000000e+00
-3.650794e-01 -9.682540e-01 0.000000e+00
-3.333333e-01 -9.682540e-01 0.000000e+00
-3.015873e-01 -9.682540e-01 0.000000e+00
-2.698413e-01 -9.682540e-01 0.000000e+00
-2.380952e-01 -9.682540e-01 0.000000e+00
-2.063492e-01 -9.682540e-01 0.000000e+00
-1.746032e-01 -9.682540e-01 0.000000e+00
-1.428571e-01 -9.682540e-01 0.000000e+00
-1.111111e-01 -9.682540e-01 0.000000e+00
-7.936508e-02 -9.682540e-01 0.000000e+00
-4.761905e-02 -9.682540e-01 0.000000e+00
-1.587302e-02 -9.682540e-01 0.000000e+00
1.587302e-02 -9.682540e-01 0.000000e+00
4.761905e-02 -9.682540e-01 0.000000e+00
7.936508e-02 -9.682540e-01 0.000000e+00
1.111111e-01 -9.682540e-01 0.000000e+00
1.428571e-01 -9.682540e-01 0.000000e+00
1.746032e-01 -9.682540e-01 0.000000e+00
2.063492e-01 -9.682540e-01 0.000000e+00
2.380952e-01 -9.682540e-01 0.000000e+00
2.698413e-01 -9.682540e-01 0.000000e+00
3.015873e-01 -9.682540e-01 0.000000e+00
3.333333e-01 -9.682540e-01 0.000000e+00
3.650794e-01 -9.682540e-01 0.000000e+00
3.968254e-01 -9.682540e-01 0.000000e+00
4.285714e-01 -9.682540e-01 0.000000e+00
4.603175e-01 -9.682540e-01 0.000000e+00
4.920635e-01 -9.682540e-01 0.000000e+00
5.238095e-01 -9.682540e-01 0.000000e+00
5.555556e-01 -9.682540e-01 0.000000e+00
5.873016e-01 -9.682540e-01 0.000000e+00
6.190476e-01 -9.682540e-01 0.000000e+00
6.507937e-01 -9.682540e-01 0.000000e+00
6.825397e-01 -9.682540e-01 0.000000e+00
7.142857e-01 -9.682540e-01 0.000000e+00
7.460317e-01 -9.682540e-01 0.000000e+00
7.777778e-01 -9.682540e-01 0.000000e+00
8.095238e-01 -9.682540e-01 0.000000e+00
8.412698e-01 -9.682540e-01 0.000000e+00
8.730159e-01 -9.682540e-01 0.000000e+00
9.047619e-01 -9.682540e-01 0.000000e+00
9.365079e-01 -9.682540e-01 0.000000e+00
9.682540e-01 -9.682540e-01 0.000000e+00
1.000000e+00 -9.682540e-01 0.000000e+00
-1.000000e+00 -9.365079e-01 0.000000e+00
-9.682540e-01 -9.365079e-01 0.000000e+00
-9.365079e-01 -9.365079e-01 0.000000e+00
-9.047619e-01 -9.365079e-01 0.000000e+00
-8.730159e-01 -9.365079e-01 0.000000e+00
-8.412698e-01 -9.365079e-01 0.000000e+00
-8.095238e-01 -9.365079e-01 0.000000e+00
-7.777778e-01 -9.365079e-01 0.000000e+00
-7.460317e-01 -9.365079e-01 0.000000e+00
-7.142857e-01 -9.365079e-01 0.000000e+00
-6.825397e-01 -9.365079e-01 0.000000e+00
-6.507937e-01 -9.365079e-01 0.000000e+00
-6.190476e-01 -9.365079e-01 0.000000e+00
-5.873016e-01 -9.365079e-01 0.000000e+00
-5.555556e-01 -9.365079e-01 0.000000e+00
-5.238095e-01 -9.365079e-01 0.000000e+00
-4.920635e-01 -9.365079e-01 0.000000e+00
-4.603175e-01 -9.365079e-01 0.000000e+00
-4.285714e-01 -9.365079e-01 0.000000e+00
-3.968254e-01 -9.365079e-01 0.000000e+00
-3.650794e-01 -9.365079e-01 0.000000e+00
-3.333333e-01 -9.365079e-01 0.000000e+00
-3.015873e-01 -9.365079e-01 0.000000e+00
-2.698413e-01 -9.365079e-01 0.000000e+00
-2.380952e-01 -9.365079e-01 0.000000e+00
-2.063492e-01 -9.365079e-01 0.000000e+00
-1.746032e-01 -9.365079e-01 0.000000e+00
-1.428571e-01 -9.365079e-01 0.000000e+00
-1.111111e-01 -9.365079e-01 0.000000e+00
-7.936508e-02 -9.365079e-01 0.000000e+00
-4.761905e-02 -9.365079e-01 0.000000e+00
-1.587302e-02 -9.365079e-01 0.000000e+00
1.587302e-02 -9.365079e-01 0.000000e+00
4.761905e-02 -9.365079e-01 0.000000e+00
7.936508e-02 -9.365079e-01 0.000000e+00
1.111111e-01 -9.365079e-01 0.000000e+00
1.428571e-01 -9.365079e-01 0.000000e+00
1.746032e-01 -9.365079e-01 0.000000e+00
2.063492e-01 -9.365079e-01 0.000000e+00
2.380952e-01 -9.365079e-01 0.000000e+00
2.698413e-01 -9.365079e-01 0.000000e+00
3.015873e-01 -9.365079e-01 0.000000e+00
3.333333e-01 -9.365079e-01 0.000000e+00
3.650794e-01 -9.365079e-01 0.000000e+00
3.968254e-01 -9.365079e-01 0.000000e+00
4.285714e-01 -9.365079e-01 0.000000e+00
4.603175e-01 -9.365079e-01 0.000000e+00
4.920635e-01 -9.365079e-01 0.000000e+00
5.238095e-01 -9.365079e-01 0.000000e+00
5.555556e-01 -9.365079e-01 0.000000e+00
5.873016e-01 -9.365079e-01 0.000000e+00
6.190476e-01 -9.365079e-01 0.000000e+00
6.507937e-01 -9.365079e-01 0.000000e+00
6.825397e-01 -9.365079e-01 0.000000e+00
7.142857e-01 -9.365079e-01 0.000000e+00
7.460317e-01 -9.365079e-01 0.000000e+00
7.777778e-01 -9.365079e-01 0.000000e+00
8.095238e-01 -9.365079e-01 0.000000e+00
8.412698e-01 -9.365079e-01 0.000000e+00
8.730159e-01 -9.365079e-01 0.000000e+00
9.047619e-01 -9.365079e-01 0.000000e+00
9.365079e-01 -9.365079e-01 0.000000e+00
9.682540e-01 -9.365079e-01 0.000000e+00
1.000000e+00 -9.365079e-01 0.000000e+00
-1.000000e+00 -9.047619e-01 0.000000e+00
-9.682540e-01 -9.047619e-01 0.000000e+00
-9.365079e-01 -9.047619e-01 0.000000e+00
-9.047619e-01 -9.047619e-01 0.000000e+00
-8.730159e-01 -9.047619e-01 0.000000e+00
-8.412698e-01 -9.047619e-01 0.000000e+00
-8.095238e-01 -9.047619e-01 0.000000e+00
-7.777778e-01 -9.047619e-01 0.000000e+00
-7.460317e-01 -9.047619e-01 0.000000e+00
-7.142857e-01 -9.047619e-01 0.000000e+00
-6.825397e-01 -9.047619e-01 0.000000e+00
-6.507937e-01 -9.047619e-01 0.000000e+00
-6.190476e-01 -9.047619e-01 0.000000e+00
-5.873016e-01 -9.047619e-01 0.000000e+00
-5.555556e-01 -9.047619e-01 0.000000e+00
-5.238095e-01 -9.047619e-01 0.000000e+00
-4.920635e-01 -9.047619e-01 0.000000e+00
-4.603175e-01 -9.047619e-01 0.000000e+00
-4.285714e-01 -9.047619e-01 0.000000e+00
-3.968254e-01 -9.047619e-01 0.000000e+00
-3.650794e-01 -9.047619e-01 0.000000e+00
-3.333333e-01 -9.047619e-01 0.000000e+00
-3.015873e-01 -9.047619e-01 0.000000e+00
-2.698413e-01 -9.047619e-01 0.000000e+00
-2.380952e-01 -9.047619e-01 0.000000e+00
-2.063492e-01 -9.047619e-01 0.000000e+00
-1.746032e-01 -9.047619e-01 0.000000e+00
-1.428571e-01 -9.047619e-01 0.000000e+00
-1.111111e-01 -9.047619e-01 0.000000e+00
-7.936508e-02 -9.047619e-01 0.000000e+00
-4.761905e-02 -9.047619e-01 0.000000e+00
-1.587302e-02 -9.047619e-01 0.000000e+00
1.587302e-02 -9.047619e-01 0.000000e+00
4.761905e-02 -9.047619e-01 0.000000e+00
7.936508e-02 -9.047619e-01 0.000000e+00
1.111111e-01 -9.047619e-01 0.000000e+00
1.428571e-01 -9.047619e-01 0.000000e+00
1.746032e-01 -9.047619e-01 0.000000e+00
2.063492e-01 -9.047619e-01 0.000000e+00
2.380952e-01 -9.047619e-01 0.000000e+00
2.698413e-01 -9.047619e-01 0.000000e+00
3.015873e-01 -9.047619e-01 0.000000e+00
3.333333e-01 -9.047619e-01 0.000000e+00
3.650794e-01 -9.047619e-01 0.000000e+00
3.968254e-01 -9.047619e-01 0.000000e+00
4.285714e-01 -9.047619e-01 0.000000e+00
4.603175e-01 -9.047619e-01 0.000000e+00
4.920635e-01 -9.047619e-01 0.000000e+00
5.238095e-01 -9.047619e-01 0.000000e+00
5.555556e-01 -9.047619e-01 0.000000e+00
5.873016e-01 -9.047619e-01 0.000000e+00
6.190476e-01 -9.047619e-01 0.000000e+00
[...]
POINT_DATA 4096 
SCALARS concentration double 1 
LOOKUP_TABLE default 
1.234062e+00 
1.215764e+00 
1.197954e+00 
1.180626e+00 
1.163793e+00 
1.147475e+00 
1.131689e+00 
1.116457e+00 
1.101799e+00 
1.087735e+00 
1.074287e+00 
1.061476e+00 
1.049324e+00 
1.037852e+00 
1.027084e+00 
1.017043e+00 
1.007749e+00 
9.992240e-01 
9.914871e-01 
9.845572e-01 
9.784523e-01 
9.731886e-01 
9.687810e-01 
9.652426e-01 
9.625847e-01 
9.608149e-01 
9.597849e-01 
9.602487e-01 
9.621211e-01 
9.651405e-01 
9.691902e-01 
9.742027e-01 
9.801308e-01 
9.869385e-01 
9.945985e-01 
1.003086e+00 
1.012378e+00 
1.022451e+00 
1.033282e+00 
1.044847e+00 
1.057125e+00 
1.070092e+00 
1.083724e+00 
1.097999e+00 
1.112895e+00 
1.128388e+00 
1.144457e+00 
1.161081e+00 
1.178238e+00 
1.195908e+00 
1.214072e+00 
1.232708e+00 
1.251800e+00 
1.271328e+00 
1.291275e+00 
1.311625e+00 
1.332360e+00 
1.353465e+00 
1.374926e+00 
1.396729e+00 
1.418859e+00 
1.441305e+00 
1.464052e+00 
1.487095e+00 
1.208130e+00 
1.189509e+00 
1.171374e+00 
1.153722e+00 
1.136567e+00 
1.119928e+00 
1.103825e+00 
1.088279e+00 
1.073312e+00 
1.058945e+00 
1.045201e+00 
1.032102e+00 
1.019671e+00 
1.007932e+00 
9.969088e-01 
9.866260e-01 
9.771059e-01 
9.683704e-01 
9.604408e-01 
9.533373e-01 
9.470791e-01 
9.416837e-01 
9.371672e-01 
9.335437e-01 
9.308252e-01 
9.290193e-01 
9.279858e-01 
9.285264e-01 
9.304963e-01 
9.336296e-01 
9.378104e-01 
9.429721e-01 
9.490677e-01 
9.560613e-01 
9.639252e-01 
9.726338e-01 
9.821628e-01 
9.924877e-01 
1.003584e+00 
1.015428e+00 
1.027994e+00 
1.041259e+00 
1.055198e+00 
1.069786e+00 
1.085001e+00 
1.100818e+00 
1.117215e+00 
1.134169e+00 
1.151659e+00 
1.169662e+00 
1.188159e+00 
1.207128e+00 
1.226552e+00 
1.246411e+00 
1.266686e+00 
1.287361e+00 
1.308419e+00 
1.329844e+00 
1.351621e+00 
1.373737e+00 
1.396177e+00 
1.418927e+00 
1.441975e+00 
1.465315e+00 
1.182431e+00 
1.163478e+00 
1.145011e+00 
1.127025e+00 
1.109537e+00 
1.092567e+00 
1.076136e+00 
1.060265e+00 
1.044977e+00 
1.030296e+00 
1.016244e+00 
1.002845e+00 
9.901242e-01 
9.781055e-01 
9.668160e-01 
9.562803e-01 
9.465226e-01 
9.375663e-01 
9.294343e-01 
9.221483e-01 
9.157288e-01 
9.101949e-01 
9.055637e-01 
9.018505e-01 
8.990683e-01 
8.972250e-01 
8.961889e-01 
8.968102e-01 
8.988804e-01 
9.021314e-01 
9.064482e-01 
9.117653e-01 
9.180363e-01 
9.252250e-01 
9.333029e-01 
9.422437e-01 
9.520215e-01 
9.626106e-01 
9.739851e-01 
9.861191e-01 
9.989867e-01 
1.012562e+00 
1.026819e+00 
1.041733e+00 
1.057279e+00 
1.073431e+00 
1.090167e+00 
1.107462e+00 
1.125293e+00 
1.143639e+00 
1.162477e+00 
1.181788e+00 
1.201551e+00 
1.221747e+00 
1.242357e+00 
1.263363e+00 
1.284750e+00 
1.306500e+00 
1.328599e+00 
1.351031e+00 
1.373784e+00 
1.396842e+00 
1.420195e+00 
1.443834e+00 
1.156981e+00 
1.137688e+00 
1.118877e+00 
1.100548e+00 
1.082717e+00 
1.065405e+00 
1.048634e+00 
1.032427e+00 
1.016807e+00 
1.001799e+00 
9.874267e-01 
9.737159e-01 
9.606919e-01 
9.483817e-01 
9.368130e-01 
9.260123e-01 
9.160052e-01 
9.068170e-01 
8.984721e-01 
8.909938e-01 
8.844043e-01 
8.787241e-01 
8.739719e-01 
8.701641e-01 
8.673148e-01 
8.654325e-01 
8.643948e-01 
8.651006e-01 
8.672740e-01 
8.706465e-01 
8.751046e-01 
8.805839e-01 
8.870384e-01 
8.944316e-01 
9.027342e-01 
9.119184e-01 
9.219570e-01 
9.328226e-01 
9.444878e-01 
9.569251e-01 
9.701069e-01 
9.840058e-01 
9.985946e-01 
1.013847e+00 
1.029735e+00 
1.046235e+00 
1.063320e+00 
1.080966e+00 
1.099150e+00 
1.117848e+00 
1.137038e+00 
1.156699e+00 
1.176809e+00 
1.197350e+00 
1.218302e+00 
1.239647e+00 
1.261368e+00 
1.283450e+00 
1.305876e+00 
1.328631e+00 
1.351701e+00 
1.375073e+00 
1.398734e+00 
1.422676e+00 
1.131798e+00 
1.112155e+00 
1.092992e+00 
1.074309e+00 
1.056124e+00 
1.038459e+00 
1.021337e+00 
1.004781e+00 
9.888161e-01 
9.734680e-01 
9.587624e-01 
9.447259e-01 
9.313855e-01 
9.187702e-01 
9.069091e-01 
8.958302e-01 
8.855611e-01 
8.761287e-01 
8.675593e-01 
8.598781e-01 
8.531091e-01 
8.472743e-01 
8.423939e-01 
8.384861e-01 
8.355660e-01 
8.336427e-01 
8.326043e-01 
8.333977e-01 
8.356772e-01 
8.391753e-01 
8.437804e-01 
8.494293e-01 
8.560761e-01 
8.636840e-01 
8.722224e-01 
8.816622e-01 
8.919744e-01 
9.031299e-01 
9.150994e-01 
9.278537e-01 
9.413635e-01 
9.555996e-01 
9.705333e-01 
9.861363e-01 
1.002381e+00 
1.019240e+00 
1.036686e+00 
1.054696e+00 
1.073242e+00 
1.092303e+00 
1.111854e+00 
1.131873e+00 
1.152339e+00 
1.173233e+00 
1.194534e+00 
1.216225e+00 
1.238289e+00 
1.260707e+00 
1.283466e+00 
1.306548e+00 
1.329941e+00 
1.353630e+00 
1.377603e+00 
1.401853e+00 
1.106900e+00 
1.086898e+00 
1.067373e+00 
1.048325e+00 
1.029775e+00 
1.011745e+00 
9.942587e-01 
9.773412e-01 
9.610183e-01 
9.453167e-01 
9.302636e-01 
9.158871e-01 
9.022159e-01 
8.892810e-01 
8.771130e-01 
8.657418e-01 
8.551968e-01 
8.455071e-01 
8.367008e-01 
8.288052e-01 
8.218461e-01 
8.158475e-01 
8.108315e-01 
8.068175e-01 
8.038223e-01 
8.018562e-01 
8.008180e-01 
8.017018e-01 
8.040901e-01 
8.077181e-01 
8.124765e-01 
8.183030e-01 
8.251518e-01 
8.329854e-01 
8.417719e-01 
8.514803e-01 
8.620797e-01 
8.735393e-01 
8.858276e-01 
8.989134e-01 
9.127656e-01 
9.273533e-01 
9.426460e-01 
9.586138e-01 
9.752275e-01 
9.924585e-01 
1.010279e+00 
1.028663e+00 
1.047583e+00 
1.067016e+00 
1.086937e+00 
1.107324e+00 
1.128155e+00 
1.149410e+00 
1.171069e+00 
1.193113e+00 
1.215524e+00 
1.238286e+00 
1.261382e+00 
1.284797e+00 
1.308517e+00 
1.332528e+00 
1.356817e+00 
1.381377e+00 
1.082302e+00 
1.061931e+00 
1.042032e+00 
1.022609e+00 
1.003682e+00 
9.852746e-01 
9.674115e-01 
9.501190e-01 
9.334240e-01 
9.173545e-01 
9.019392e-01 
8.872077e-01 
8.731905e-01 
8.599207e-01 
8.474306e-01 
8.357520e-01 
8.249164e-01 
8.149551e-01 
8.058985e-01 
7.977761e-01 
7.906158e-01 
7.844437e-01 
7.792838e-01 
7.751573e-01 
7.720827e-01 
7.700717e-01 
7.690349e-01 
7.700124e-01 
7.725129e-01 
7.762760e-01 
7.811948e-01 
7.872080e-01 
7.942696e-01 
8.023411e-01 
8.113888e-01 
8.213798e-01 
8.322814e-01 
8.440600e-01 
8.566825e-01 
8.701153e-01 
8.843253e-01 
8.992797e-01 
9.149461e-01 
9.312929e-01 
9.482894e-01 
9.659056e-01 
9.841124e-01 
1.002882e+00 
1.022187e+00 
1.042003e+00 
1.062305e+00 
1.083069e+00 
1.104274e+00 
1.125898e+00 
1.147921e+00 
1.170325e+00 
1.193090e+00 
1.216201e+00 
1.239640e+00 
1.263393e+00 
1.287444e+00 
1.311780e+00 
1.336388e+00 
1.361262e+00 
1.058008e+00 
1.037259e+00 
1.016977e+00 
9.971670e-01 
9.778514e-01 
9.590544e-01 
9.408019e-01 
9.231210e-01 
9.060401e-01 
8.895883e-01 
8.737959e-01 
8.586941e-01 
8.443154e-01 
8.306949e-01 
8.178667e-01 
8.058650e-01 
7.947235e-01 
7.844758e-01 
7.751548e-01 
7.667925e-01 
7.594191e-01 
7.530631e-01 
7.477505e-01 
7.435048e-01 
7.403461e-01 
7.382882e-01 
7.372542e-01 
7.383278e-01 
7.409441e-01 
7.448481e-01 
7.499355e-01 
7.561456e-01 
7.634319e-01 
7.717545e-01 
7.810780e-01 
7.913672e-01 
8.025867e-01 
8.147010e-01 
8.276742e-01 
8.414705e-01 
8.560546e-01 
8.713916e-01 
8.874472e-01 
9.041881e-01 
9.215817e-01 
9.395967e-01 
9.582026e-01 
9.773702e-01 
9.970720e-01 
1.017282e+00 
1.037974e+00 
1.059125e+00 
1.080712e+00 
1.102713e+00 
1.125108e+00 
1.147878e+00 
1.171004e+00 
1.194469e+00 
1.218257e+00 
1.242351e+00 
1.266738e+00 
1.291403e+00 
1.316334e+00 
1.341525e+00 
1.034025e+00 
1.012887e+00 
9.922123e-01 
9.720066e-01 
9.522923e-01 
9.330948e-01 
9.144410e-01 
8.963592e-01 
8.788789e-01 
8.620308e-01 
8.458467e-01 
8.303593e-01 
8.156033e-01 
8.016158e-01 
7.884332e-01 
7.760918e-01 
7.646281e-01 
7.540783e-01 
7.444779e-01 
7.358615e-01 
7.282622e-01 
7.217111e-01 
7.162365e-01 
7.118641e-01 
7.086162e-01 
7.065090e-01 
7.054778e-01 
7.066442e-01 
7.093784e-01 
7.134289e-01 
7.186934e-01 
7.251114e-01 
7.326354e-01 
7.412238e-01 
7.508389e-01 
7.614430e-01 
7.729981e-01 
7.854657e-01 
7.988076e-01 
8.129854e-01 
8.279613e-01 
8.436981e-01 
8.601596e-01 
8.773105e-01 
8.951166e-01 
9.135447e-01 
9.325633e-01 
9.521421e-01 
9.722525e-01 
9.928674e-01 
1.013961e+00 
1.035508e+00 
1.057487e+00 
1.079874e+00 
1.102649e+00 
1.125792e+00 
1.149285e+00 
1.173110e+00 
1.197250e+00 
1.221691e+00 
1.246417e+00 
1.271415e+00 
1.296673e+00 
1.322184e+00 
1.010381e+00 
9.888453e-01 
9.677682e-01 
9.471555e-01 
9.270306e-01 
9.074198e-01 
8.883510e-01 
8.698538e-01 
8.519588e-01 
8.346982e-01 
8.181055e-01 
8.022152e-01 
7.870640e-01 
7.726913e-01 
7.591357e-01 
7.464364e-01 
7.346323e-01 
7.237626e-01 
7.138659e-01 
7.049797e-01 
6.971402e-01 
6.903812e-01 
6.847341e-01 
6.802269e-01 
6.768843e-01 
6.747253e-01 
6.737008e-01 
6.749709e-01 
6.778308e-01 
6.820368e-01 
6.874894e-01 
6.941284e-01 
7.019051e-01 
7.107758e-01 
7.207002e-01 
7.316377e-01 
7.435472e-01 
7.563875e-01 
7.701171e-01 
7.846951e-01 
8.000810e-01 
8.162353e-01 
8.331196e-01 
8.506964e-01 
8.689299e-01 
8.877853e-01 
9.072298e-01 
9.272322e-01 
9.477630e-01 
9.687940e-01 
9.902987e-01 
1.012252e+00 
1.034630e+00 
1.057409e+00 
1.080570e+00 
1.104092e+00 
1.127956e+00 
1.152145e+00 
1.176643e+00 
1.201433e+00 
1.226502e+00 
1.251836e+00 
1.277423e+00 
1.303255e+00 
9.870992e-01 
9.651582e-01 
9.436686e-01 
9.226381e-01 
9.020908e-01 
8.820540e-01 
8.625566e-01 
8.436292e-01 
8.253039e-01 
8.076144e-01 
7.905957e-01 
7.742845e-01 
7.587194e-01 
7.439421e-01 
7.299941e-01 
7.169170e-01 
7.047529e-01 
6.935443e-01 
6.833329e-01 
6.741597e-01 
6.660642e-01 
6.590835e-01 
6.532519e-01 
6.486006e-01 
6.451570e-01 
6.429433e-01 
6.419274e-01 
6.433041e-01 
6.462946e-01 
6.506643e-01 
6.563160e-01 
6.631897e-01 
6.712351e-01 
6.804060e-01 
6.906587e-01 
7.019496e-01 
7.142341e-01 
7.274676e-01 
7.416055e-01 
7.566038e-01 
7.724194e-01 
7.890101e-01 
8.063351e-01 
8.243550e-01 
8.430319e-01 
8.623298e-01 
8.822146e-01 
9.026540e-01 
9.236174e-01 
9.450757e-01 
9.670018e-01 
9.893696e-01 
1.012155e+00 
1.035335e+00 
1.058888e+00 
1.082795e+00 
1.107036e+00 
1.131594e+00 
1.156452e+00 
1.181596e+00 
1.207010e+00 
1.232683e+00 
1.258600e+00 
1.284753e+00 
9.642034e-01 
9.418478e-01 
9.199361e-01 
8.984769e-01 
8.774954e-01 
8.570197e-01 
8.370798e-01 
8.177073e-01 
7.989357e-01 
7.808001e-01 
7.633374e-01 
7.465862e-01 
7.305874e-01 
7.153852e-01 
7.010236e-01 
6.875476e-01 
6.750024e-01 
6.634339e-01 
6.528878e-01 
6.434086e-01 
6.350396e-01 
6.278217e-01 
6.217928e-01 
6.169871e-01 
6.134353e-01 
6.111633e-01 
6.101580e-01 
6.116441e-01 
6.147707e-01 
6.193129e-01 
6.251762e-01 
6.322999e-01 
6.406316e-01 
6.501220e-01 
6.607240e-01 
6.723899e-01 
6.850714e-01 
6.987203e-01 
7.132885e-01 
7.287286e-01 
7.449945e-01 
7.620414e-01 
7.798259e-01 
7.983064e-01 
8.174435e-01 
8.371996e-01 
8.575392e-01 
8.784290e-01 
8.998371e-01 
9.217339e-01 
9.440912e-01 
9.668827e-01 
9.900837e-01 
1.013671e+00 
1.037623e+00 
1.061920e+00 
1.086543e+00 
1.111474e+00 
1.136697e+00 
1.162197e+00 
1.187960e+00 
1.213972e+00 
1.240220e+00 
1.266694e+00 
9.417187e-01 
9.189396e-01 
8.965961e-01 
8.746977e-01 
8.532703e-01 
8.323427e-01 
8.119461e-01 
7.921131e-01 
7.728785e-01 
7.542791e-01 
7.363534e-01 
7.191422e-01 
7.026887e-01 
6.870395e-01 
6.722419e-01 
6.583439e-01 
6.453946e-01 
6.334435e-01 
6.225405e-01 
6.127344e-01 
6.040727e-01 
5.966004e-01 
5.903595e-01 
5.853880e-01 
5.817200e-01 
5.793859e-01 
5.783930e-01 
5.799910e-01 
5.832597e-01 
5.879845e-01 
5.940732e-01 
6.014639e-01 
6.101014e-01 
6.199328e-01 
6.309067e-01 
6.429713e-01 
6.560740e-01 
6.701622e-01 
6.851840e-01 
7.010888e-01 
7.178269e-01 
7.353507e-01 
7.536143e-01 
7.725740e-01 
7.921886e-01 
8.124190e-01 
8.332283e-01 
8.545817e-01 
8.764467e-01 
8.987927e-01 
9.215910e-01 
9.448148e-01 
9.684390e-01 
9.924404e-01 
1.016797e+00 
1.041489e+00 
1.066498e+00 
1.091807e+00 
1.117398e+00 
1.143257e+00 
1.169370e+00 
1.195722e+00 
1.222299e+00 
1.249093e+00 
9.196706e-01 
8.964592e-01 
8.736743e-01 
8.513260e-01 
8.294408e-01 
8.080484e-01 
7.871806e-01 
7.668713e-01 
7.471566e-01 
7.280748e-01 
7.096662e-01 
6.919738e-01 
6.750433e-01 
6.589238e-01 
6.436660e-01 
6.293213e-01 
6.159428e-01 
6.035844e-01 
5.923004e-01 
5.821443e-01 
5.731685e-01 
5.654229e-01 
5.589540e-01 
5.538040e-01 
5.500111e-01 
5.476104e-01 
5.466321e-01 
5.483444e-01 
5.517620e-01 
5.566810e-01 
5.630107e-01 
5.706875e-01 
5.796526e-01 
5.898486e-01 
6.012197e-01 
6.137087e-01 
6.272584e-01 
6.418117e-01 
6.573125e-01 
6.737061e-01 
6.909396e-01 
7.089621e-01 
7.277254e-01 
7.471837e-01 
7.672936e-01 
7.880145e-01 
8.093082e-01 
8.311387e-01 
8.534725e-01 
8.762784e-01 
8.995271e-01 
9.231915e-01 
9.472462e-01 
9.716680e-01 
9.964351e-01 
1.021527e+00 
1.046927e+00 
1.072615e+00 
1.098577e+00 
1.124796e+00 
1.151258e+00 
1.177948e+00 
1.204855e+00 
1.231967e+00 
8.980791e-01 
8.744293e-01 
8.511943e-01 
8.283860e-01 
8.060315e-01 
7.841614e-01 
7.628082e-01 
7.420068e-01 
7.217946e-01 
7.022114e-01 
6.832996e-01 
6.651041e-01 
6.476733e-01 
6.310590e-01 
6.153151e-01 
6.004973e-01 
5.866627e-01 
5.738700e-01 
5.621785e-01 
5.516471e-01 
5.423338e-01 
5.342938e-01 
5.275789e-01 
5.222363e-01 
5.183088e-01 
5.158368e-01 
5.148752e-01 
5.167044e-01 
5.202788e-01 
5.254049e-01 
5.319934e-01 
5.399777e-01 
5.492946e-01 
5.598818e-01 
5.716776e-01 
5.846194e-01 
5.986445e-01 
6.136908e-01 
6.296974e-01 
6.466056e-01 
6.643588e-01 
6.829031e-01 
7.021877e-01 
7.221643e-01 
7.427877e-01 
7.640155e-01 
7.858082e-01 
8.081288e-01 
8.309432e-01 
8.542192e-01 
8.779273e-01 
9.020401e-01 
9.265321e-01 
9.513801e-01 
9.765625e-01 
1.002059e+00 
1.027852e+00 
1.053923e+00 
1.080255e+00 
1.106834e+00 
1.133644e+00 
1.160672e+00 
1.187905e+00 
1.215333e+00 
8.769866e-01 
8.528949e-01 
8.292012e-01 
8.059227e-01 
7.830875e-01 
7.607266e-01 
7.388732e-01 
7.175634e-01 
6.968356e-01 
6.767311e-01 
6.572941e-01 
6.385720e-01 
6.206155e-01 
6.034794e-01 
5.872214e-01 
5.719011e-01 
5.575805e-01 
5.443233e-01 
5.321944e-01 
5.212591e-01 
5.115813e-01 
5.032227e-01 
4.962412e-01 
4.906897e-01 
4.866160e-01 
4.840669e-01 
4.831244e-01 
4.850739e-01 
4.888138e-01 
4.941618e-01 
5.010288e-01 
5.093443e-01 
5.190402e-01 
5.300478e-01 
5.422989e-01 
5.557245e-01 
5.702557e-01 
5.858248e-01 
6.023661e-01 
6.198161e-01 
6.381147e-01 
6.572047e-01 
6.770324e-01 
6.975474e-01 
7.187023e-01 
7.404533e-01 
7.627596e-01 
7.855834e-01 
8.088895e-01 
8.326455e-01 
8.568215e-01 
8.813899e-01 
9.063255e-01 
9.316048e-01 
9.572065e-01 
9.831106e-01 
1.009298e+00 
1.035751e+00 
1.062454e+00 
1.089391e+00 
1.116547e+00 
1.143911e+00 
1.171469e+00 
1.199211e+00 
8.564458e-01 
8.318993e-01 
8.077369e-01 
7.839772e-01 
7.606489e-01 
7.377832e-01 
7.154142e-01 
6.935786e-01 
6.723161e-01 
6.516695e-01 
6.316847e-01 
6.124110e-01 
5.939020e-01 
5.762157e-01 
5.594136e-01 
5.435595e-01 
5.287205e-01 
5.149661e-01 
5.023675e-01 
4.909967e-01 
4.809249e-01 
4.722210e-01 
4.649500e-01 
4.591712e-01 
4.549385e-01 
4.523049e-01 
4.513787e-01 
4.534437e-01 
4.573574e-01 
4.629433e-01 
4.701108e-01 
4.787846e-01 
4.888896e-01 
5.003503e-01 
5.130905e-01 
5.270341e-01 
5.421054e-01 
5.582304e-01 
5.753378e-01 
5.933596e-01 
6.122314e-01 
6.318928e-01 
6.522871e-01 
6.733616e-01 
6.950673e-01 
7.173587e-01 
7.401939e-01 
7.635341e-01 
7.873437e-01 
8.115898e-01 
8.362425e-01 
8.612742e-01 
8.866597e-01 
9.123755e-01 
9.384003e-01 
9.647139e-01 
9.912974e-01 
1.018133e+00 
1.045206e+00 
1.072500e+00 
1.100002e+00 
1.127699e+00 
1.155579e+00 
1.183633e+00 
8.364126e-01 
8.114029e-01 
7.867669e-01 
7.625199e-01 
7.386905e-01 
7.153103e-01 
6.924139e-01 
6.700387e-01 
6.482254e-01 
6.270182e-01 
6.064646e-01 
5.866164e-01 
5.675295e-01 
5.492650e-01 
5.318885e-01 
5.154685e-01 
5.000777e-01 
4.857916e-01 
4.726887e-01 
4.608485e-01 
4.503507e-01 
4.412726e-01 
4.336875e-01 
4.276624e-01 
4.232578e-01 
4.205343e-01 
4.196323e-01 
4.218249e-01 
4.259276e-01 
4.317730e-01 
4.392685e-01 
4.483324e-01 
4.588815e-01 
4.708316e-01 
4.840982e-01 
4.985967e-01 
5.142439e-01 
5.309589e-01 
5.486646e-01 
5.672880e-01 
5.867607e-01 
6.070186e-01 
6.280021e-01 
6.496562e-01 
6.719301e-01 
6.947770e-01 
7.181539e-01 
7.420215e-01 
7.663436e-01 
7.910875e-01 
8.162230e-01 
8.417227e-01 
8.675615e-01 
8.937160e-01 
9.201645e-01 
9.468868e-01 
9.738646e-01 
1.001081e+00 
1.028520e+00 
1.056169e+00 
1.084012e+00 
1.112039e+00 
1.140238e+00 
1.168599e+00 
8.169544e-01 
7.914817e-01 
7.663665e-01 
7.416248e-01 
7.172852e-01 
6.933796e-01 
6.699428e-01 
6.470128e-01 
6.246313e-01 
6.028435e-01 
5.816987e-01 
5.612507e-01 
5.415579e-01 
5.226847e-01 
5.047006e-01 
4.876794e-01 
4.716992e-01 
4.568428e-01 
4.431962e-01 
4.308480e-01 
4.198872e-01 
4.104013e-01 
4.024732e-01 
3.961788e-01 
3.915864e-01 
3.887651e-01 
3.878894e-01 
3.902138e-01 
3.945194e-01 
4.006471e-01 
4.085005e-01 
4.179899e-01 
4.290224e-01 
4.415035e-01 
4.553386e-01 
4.704338e-01 
4.866971e-01 
5.040404e-01 
5.223803e-01 
5.416385e-01 
5.617419e-01 
5.826230e-01 
6.042194e-01 
6.264739e-01 
6.493338e-01 
6.727514e-01 
6.966829e-01 
7.210884e-01 
7.459319e-01 
7.711803e-01 
7.968038e-01 
8.227750e-01 
8.490684e-01 
8.756609e-01 
9.025310e-01 
9.296593e-01 
9.570279e-01 
9.846205e-01 
1.012422e+00 
1.040419e+00 
1.068599e+00 
1.096949e+00 
1.125460e+00 
1.154121e+00 
7.981094e-01 
7.721708e-01 
7.465719e-01 
7.213294e-01 
6.964718e-01 
6.720310e-01 
6.480418e-01 
6.245429e-01 
6.015763e-01 
5.791884e-01 
5.574300e-01 
5.363567e-01 
5.160295e-01 
4.965158e-01 
4.778892e-01 
4.602286e-01 
4.436186e-01 
4.281494e-01 
4.139157e-01 
4.010160e-01 
3.895506e-01 
3.796184e-01 
3.713141e-01 
3.647241e-01 
3.599257e-01 
3.569974e-01 
3.561501e-01 
3.586108e-01 
3.631357e-01 
3.695721e-01 
3.778180e-01 
3.877735e-01 
3.993336e-01 
4.123919e-01 
4.268422e-01 
4.425794e-01 
4.595024e-01 
4.775148e-01 
4.965266e-01 
5.164536e-01 
5.372183e-01 
5.587495e-01 
5.809822e-01 
6.038571e-01 
6.273203e-01 
6.513229e-01 
6.758208e-01 
7.007740e-01 
7.261462e-01 
7.519047e-01 
7.780197e-01 
8.044637e-01 
8.312117e-01 
8.582409e-01 
8.855306e-01 
9.130621e-01 
9.408181e-01 
9.687830e-01 
9.969424e-01 
1.025283e+00 
1.053793e+00 
1.082461e+00 
1.111278e+00 
1.140235e+00 
7.799140e-01 
7.535081e-01 
7.274227e-01 
7.016751e-01 
6.762933e-01 
6.513091e-01 
6.267572e-01 
6.026763e-01 
5.791089e-01 
5.561022e-01 
5.337082e-01 
5.119841e-01 
4.909933e-01 
4.708060e-01 
4.515000e-01 
4.331597e-01 
4.158761e-01 
3.997474e-01 
3.848783e-01 
3.713784e-01 
3.593608e-01 
3.489383e-01 
3.402194e-01 
3.333033e-01 
3.282776e-01 
3.252319e-01 
3.244147e-01 
3.270170e-01 
3.317802e-01 
3.385561e-01 
3.472348e-01 
3.577029e-01 
3.698412e-01 
3.835289e-01 
3.986461e-01 
4.150756e-01 
4.327056e-01 
4.514310e-01 
4.711542e-01 
4.917854e-01 
5.132425e-01 
5.354509e-01 
5.583429e-01 
5.818576e-01 
6.059401e-01 
6.305408e-01 
6.556154e-01 
6.811240e-01 
7.070305e-01 
7.333024e-01 
7.599099e-01 
7.868261e-01 
8.140268e-01 
8.414900e-01 
8.691958e-01 
8.971261e-01 
9.252645e-01 
9.535961e-01 
9.821072e-01 
1.010786e+00 
1.039620e+00 
1.068600e+00 
1.097716e+00 
1.126961e+00 
7.624106e-01 
7.355384e-01 
7.089657e-01 
6.827103e-01 
6.568001e-01 
6.312660e-01 
6.061427e-01 
5.814683e-01 
5.572858e-01 
5.336425e-01 
5.105913e-01 
4.881911e-01 
4.665070e-01 
4.456122e-01 
4.255882e-01 
4.065249e-01 
3.885202e-01 
3.716809e-01 
3.561223e-01 
3.419671e-01 
3.293428e-01 
3.183790e-01 
3.092008e-01 
3.019228e-01 
2.966451e-01 
2.934695e-01 
2.926834e-01 
2.954335e-01 
3.004574e-01 
3.076092e-01 
3.167674e-01 
3.278022e-01 
3.405766e-01 
3.549529e-01 
3.707950e-01 
3.879720e-01 
4.063604e-01 
4.258454e-01 
4.463217e-01 
4.676936e-01 
4.898744e-01 
5.127864e-01 
5.363599e-01 
5.605325e-01 
5.852486e-01 
6.104586e-01 
6.361182e-01 
6.621877e-01 
6.886314e-01 
7.154171e-01 
7.425160e-01 
7.699020e-01 
7.975518e-01 
8.254443e-01 
8.535607e-01 
8.818837e-01 
9.103978e-01 
9.390889e-01 
9.679444e-01 
9.969528e-01 
1.026104e+00 
1.055387e+00 
1.084796e+00 
1.114320e+00 
7.456536e-01 
7.183176e-01 
6.912582e-01 
6.644942e-01 
6.380527e-01 
6.119640e-01 
5.862617e-01 
5.609839e-01 
5.361729e-01 
5.118763e-01 
4.881472e-01 
4.650455e-01 
4.426381e-01 
4.210004e-01 
4.002179e-01 