# vtk DataFile Version 2.0 
Quadtree Mesh 
ASCII 
DATASET UNSTRUCTURED_GRID 
POINTS 4096 double 
-1.000000e+00 -1.000000e+00 0.000000e+00
-9.682540e-01 -1.000000e+00 0.000000e+00
-9.365079e-01 -1.000000e+00 0.000000e+00
-9.047619e-01 -1.000000e+00 0.000000e+00
-8.730159e-01 -1.000000e+00 0.000000e+00
-8.412698e-01 -1.000000e+00 0.000000e+00
-8.095238e-01 -1.000000e+00 0.000000e+00
-7.777778e-01 -1.000000e+00 0.000000e+00
-7.460317e-01 -1.000000e+00 0.000000e+00
-7.142857e-01 -1.000000e+00 0.000000e+00
-6.825397e-01 -1.000000e+00 0.000000e+00
-6.507937e-01 -1.000000e+00 0.000000e+00
-6.190476e-01 -1.000000e+00 0.000000e+00
-5.873016e-01 -1.000000e+00 0.000000e+00
-5.555556e-01 -1.000000e+00 0.000000e+00
-5.238095e-01 -1.000000e+00 0.000000e+00
-4.920635e-01 -1.000000e+00 0.000000e+00
-4.603175e-01 -1.000000e+00 0.000000e+00
-4.285714e-01 -1.000000e+00 0.000000e+00
-3.968254e-01 -1.000000e+00 0.000000e+00
-3.650794e-01 -1.000000e+00 0.000000e+00
-3.333333e-01 -1.000000e+00 0.000000e+00
-3.015873e-01 -1.000000e+00 0.000000e+00
-2.698413e-01 -1.000000e+00 0.000000e+00
-2.380952e-01 -1.000000e+00 0.000000e+00
-2.063492e-01 -1.000000e+00 0.000000e+00
-1.746032e-01 -1.000000e+00 0.000000e+00
-1.428571e-01 -1.000000e+00 0.000000e+00
-1.111111e-01 -1.000000e+00 0.000000e+00
-7.936508e-02 -1.000000e+00 0.000000e+00
-4.761905e-02 -1.000000e+00 0.000000e+00
-1.587302e-02 -1.000000e+00 0.000000e+00
1.587302e-02 -1.000000e+00 0.000000e+00
4.761905e-02 -1.000000e+00 0.000000e+00
7.936508e-02 -1.000000e+00 0.000000e+00
1.111111e-01 -1.000000e+00 0.000000e+00
1.428571e-01 -1.000000e+00 0.000000e+00
1.746032e-01 -1.000000e+00 0.000000e+00
2.063492e-01 -1.000000e+00 0.000000e+00
2.380952e-01 -1.000000e+00 0.000000e+00
2.698413e-01 -1.000000e+00 0.000000e+00
3.015873e-01 -1.000000e+00 0.000000e+00
3.333333e-01 -1.000000e+00 0.000000e+00
3.650794e-01 -1.000000e+00 0.000000e+00
3.968254e-01 -1.000000e+00 0.000000e+00
4.285714e-01 -1.000000e+00 0.000000e+00
4.603175e-01 -1.000000e+00 0.000000e+00
4.920635e-01 -1.000000e+00 0.000000e+00
5.238095e-01 -1.000000e+00 0.000000e+00
5.555556e-01 -1.000000e+00 0.000000e+00
5.873016e-01 -1.000000e+00 0.000000e+00
6.190476e-01 -1.000000e+00 0.000000e+00
6.507937e-01 -1.000000e+00 0.000000e+00
6.825397e-01 -1.000000e+00 0.000000e+00
7.142857e-01 -1.000000e+00 0.000000e+00
7.460317e-01 -1.000000e+00 0.000000e+00
7.777778e-01 -1.000000e+00 0.000000e+00
8.095238e-01 -1.000000e+00 0.000000e+00
8.412698e-01 -1.000000e+00 0.000000e+00
8.730159e-01 -1.000000e+00 0.000000e+00
9.047619e-01 -1.000000e+00 0.000000e+00
9.365079e-01 -1.000000e+00 0.000000e+00
9.682540e-01 -1.000000e+00 0.000000e+00
1.000000e+00 -1.000000e+00 0.000000e+00
-1.000000e+00 -9.682540e-01 0.000000e+00
-9.682540e-01 -9.682540e-01 0.000000e+00
-9.365079e-01 -9.682540e-01 0.000000e+00
-9.047619e-01 -9.682540e-01 0.000000e+00
-8.730159e-01 -9.682540e-01 0.000000e+00
-8.412698e-01 -9.682540e-01 0.000000e+00
-8.095238e-01 -9.682540e-01 0.000000e+00
-7.777778e-01 -9.682540e-01 0.000000e+00
-7.460317e-01 -9.682540e-01 0.000000e+00
-7.142857e-01 -9.682540e-01 0.000000e+00
-6.825397e-01 -9.682540e-01 0.000000e+00
-6.507937e-01 -9.682540e-01 0.000000e+00
-6.190476e-01 -9.682540e-01 0.000000e+00
-5.873016e-01 -9.682540e-01 0.000000e+00
-5.555556e-01 -9.682540e-01 0.000000e+00
-5.238095e-01 -9.682540e-01 0.000000e+00
-4.920635e-01 -9.682540e-01 0.000000e+00
-4.603175e-01 -9.682540e-01 0.000000e+00
-4.285714e-01 -9.682540e-01 0.000000e+00
-3.968254e-01 -9.682540e-01 0.000000e+00
-3.650794e-01 -9.682540e-01 0.000000e+00
-3.333333e-01 -9.682540e-01 0.000000e+00
-3.015873e-01 -9.682540e-01 0.000000e+00
-2.698413e-01 -9.682540e-01 0.000000e+00
-2.380952e-01 -9.682540e-01 0.000000e+00
-2.063492e-01 -9.682540e-01 0.000000e+00
-1.746032e-01 -9.682540e-01 0.000000e+00
-1.428571e-01 -9.682540e-01 0.000000e+00
-1.111111e-01 -9.682540e-01 0.000000e+00
-7.936508e-02 -9.682540e-01 0.000000e+00
-4.761905e-02 -9.682540e-01 0.000000e+00
-1.587302e-02 -9.682540e-01 0.000000e+00
1.587302e-02 -9.682540e-01 0.000000e+00
4.761905e-02 -9.682540e-01 0.000000e+00
7.936508e-02 -9.682540e-01 0.000000e+00
1.111111e-01 -9.682540e-01 0.000000e+00
1.428571e-01 -9.682540e-01 0.000000e+00
1.746032e-01 -9.682540e-01 0.000000e+00
2.063492e-01 -9.682540e-01 0.000000e+00
2.380952e-01 -9.682540e-01 0.000000e+00
2.698413e-01 -9.682540e-01 0.000000e+00
3.015873e-01 -9.682540e-01 0.000000e+00
3.333333e-01 -9.682540e-01 0.000000e+00
3.650794e-01 -9.682540e-01 0.000000e+00
3.968254e-01 -9.682540e-01 0.000000e+00
4.285714e-01 -9.682540e-01 0.000000e+00
4.603175e-01 -9.682540e-01 0.000000e+00
4.920635e-01 -9.682540e-01 0.000000e+00
5.238095e-01 -9.682540e-01 0.000000e+00
5.555556e-01 -9.682540e-01 0.000000e+00
5.873016e-01 -9.682540e-01 0.000000e+00
6.190476e-01 -9.682540e-01 0.000000e+00
6.507937e-01 -9.682540e-01 0.000000e+00
6.825397e-01 -9.682540e-01 0.000000e+00
7.142857e-01 -9.682540e-01 0.000000e+00
7.460317e-01 -9.682540e-01 0.000000e+00
7.777778e-01 -9.682540e-01 0.000000e+00
8.095238e-01 -9.682540e-01 0.000000e+00
8.412698e-01 -9.682540e-01 0.000000e+00
8.730159e-01 -9.682540e-01 0.000000e+00
9.047619e-01 -9.682540e-01 0.000000e+00
9.365079e-01 -9.682540e-01 0.000000e+00
9.682540e-01 -9.682540e-01 0.000000e+00
1.000000e+00 -9.682540e-01 0.000000e+00
-1.000000e+00 -9.365079e-01 0.000000e+00
-9.682540e-01 -9.365079e-01 0.000000e+00
-9.365079e-01 -9.365079e-01 0.000000e+00
-9.047619e-01 -9.365079e-01 0.000000e+00
-8.730159e-01 -9.365079e-01 0.000000e+00
-8.412698e-01 -9.365079e-01 0.000000e+00
-8.095238e-01 -9.365079e-01 0.000000e+00
-7.777778e-01 -9.365079e-01 0.000000e+00
-7.460317e-01 -9.365079e-01 0.000000e+00
-7.142857e-01 -9.365079e-01 0.000000e+00
-6.825397e-01 -9.365079e-01 0.000000e+00
-6.507937e-01 -9.365079e-01 0.000000e+00
-6.190476e-01 -9.365079e-01 0.000000e+00
-5.873016e-01 -9.365079e-01 0.000000e+00
-5.555556e-01 -9.365079e-01 0.000000e+00
-5.238095e-01 -9.365079e-01 0.000000e+00
-4.920635e-01 -9.365079e-01 0.000000e+00
-4.603175e-01 -9.365079e-01 0.000000e+00
-4.285714e-01 -9.365079e-01 0.000000e+00
-3.968254e-01 -9.365079e-01 0.000000e+00
-3.650794e-01 -9.365079e-01 0.000000e+00
-3.333333e-01 -9.365079e-01 0.000000e+00
-3.015873e-01 -9.365079e-01 0.000000e+00
-2.698413e-01 -9.365079e-01 0.000000e+00
-2.380952e-01 -9.365079e-01 0.000000e+00
-2.063492e-01 -9.365079e-01 0.000000e+00
-1.746032e-01 -9.365079e-01 0.000000e+00
-1.428571e-01 -9.365079e-01 0.000000e+00
-1.111111e-01 -9.365079e-01 0.000000e+00
-7.936508e-02 -9.365079e-01 0.000000e+00
-4.761905e-02 -9.365079e-01 0.000000e+00
-1.587302e-02 -9.365079e-01 0.000000e+00
1.587302e-02 -9.365079e-01 0.000000e+00
4.761905e-02 -9.365079e-01 0.000000e+00
7.936508e-02 -9.365079e-01 0.000000e+00
1.111111e-01 -9.365079e-01 0.000000e+00
1.428571e-01 -9.365079e-01 0.000000e+00
1.746032e-01 -9.365079e-01 0.000000e+00
2.063492e-01 -9.365079e-01 0.000000e+00
2.380952e-01 -9.365079e-01 0.000000e+00
2.698413e-01 -9.365079e-01 0.000000e+00
3.015873e-01 -9.365079e-01 0.000000e+00
3.333333e-01 -9.365079e-01 0.000000e+00
3.650794e-01 -9.365079e-01 0.000000e+00
3.968254e-01 -9.365079e-01 0.000000e+00
4.285714e-01 -9.365079e-01 0.000000e+00
4.603175e-01 -9.365079e-01 0.000000e+00
4.920635e-01 -9.365079e-01 0.000000e+00
5.238095e-01 -9.365079e-01 0.000000e+00
5.555556e-01 -9.365079e-01 0.000000e+00
5.873016e-01 -9.365079e-01 0.000000e+00
6.190476e-01 -9.365079e-01 0.000000e+00
6.507937e-01 -9.365079e-01 0.000000e+00
6.825397e-01 -9.365079e-01 0.000000e+00
7.142857e-01 -9.365079e-01 0.000000e+00
7.460317e-01 -9.365079e-01 0.000000e+00
7.777778e-01 -9.365079e-01 0.000000e+00
8.095238e-01 -9.365079e-01 0.000000e+00
8.412698e-01 -9.365079e-01 0.000000e+00
8.730159e-01 -9.365079e-01 0.000000e+00
9.047619e-01 -9.365079e-01 0.000000e+00
9.365079e-01 -9.365079e-01 0.000000e+00
9.682540e-01 -9.365079e-01 0.000000e+00
1.000000e+00 -9.365079e-01 0.000000e+00
-1.000000e+00 -9.047619e-01 0.000000e+00
-9.682540e-01 -9.047619e-01 0.000000e+00
-9.365079e-01 -9.047619e-01 0.000000e+00
-9.047619e-01 -9.047619e-01 0.000000e+00
-8.730159e-01 -9.047619e-01 0.000000e+00
-8.412698e-01 -9.047619e-01 0.000000e+00
-8.095238e-01 -9.047619e-01 0.000000e+00
-7.777778e-01 -9.047619e-01 0.000000e+00
-7.460317e-01 -9.047619e-01 0.000000e+00
-7.142857e-01 -9.047619e-01 0.000000e+00
-6.825397e-01 -9.047619e-01 0.000000e+00
-6.507937e-01 -9.047619e-01 0.000000e+00
-6.190476e-01 -9.047619e-01 0.000000e+00
-5.873016e-01 -9.047619e-01 0.000000e+00
-5.555556e-01 -9.047619e-01 0.000000e+00
-5.238095e-01 -9.047619e-01 0.000000e+00
-4.920635e-01 -9.047619e-01 0.000000e+00
-4.603175e-01 -9.047619e-01 0.000000e+00
-4.285714e-01 -9.047619e-01 0.000000e+00
-3.968254e-01 -9.047619e-01 0.000000e+00
-3.650794e-01 -9.047619e-01 0.000000e+00
-3.333333e-01 -9.047619e-01 0.000000e+00
-3.015873e-01 -9.047619e-01 0.000000e+00
-2.698413e-01 -9.047619e-01 0.000000e+00
-2.380952e-01 -9.047619e-01 0.000000e+00
-2.063492e-01 -9.047619e-01 0.000000e+00
-1.746032e-01 -9.047619e-01 0.000000e+00
-1.428571e-01 -9.047619e-01 0.000000e+00
-1.111111e-01 -9.047619e-01 0.000000e+00
-7.936508e-02 -9.047619e-01 0.000000e+00
-4.761905e-02 -9.047619e-01 0.000000e+00
-1.587302e-02 -9.047619e-01 0.000000e+00
1.587302e-02 -9.047619e-01 0.000000e+00
4.761905e-02 -9.047619e-01 0.000000e+00
7.936508e-02 -9.047619e-01 0.000000e+00
1.111111e-01 -9.047619e-01 0.000000e+00
1.428571e-01 -9.047619e-01 0.000000e+00
1.746032e-01 -9.047619e-01 0.000000e+00
2.063492e-01 -9.047619e-01 0.000000e+00
2.380952e-01 -9.047619e-01 0.000000e+00
2.698413e-01 -9.047619e-01 0.000000e+00
3.015873e-01 -9.047619e-01 0.000000e+00
3.333333e-01 -9.047619e-01 0.000000e+00
3.650794e-01 -9.047619e-01 0.000000e+00
3.968254e-01 -9.047619e-01 0.000000e+00
4.285714e-01 -9.047619e-01 0.000000e+00
4.603175e-01 -9.047619e-01 0.000000e+00
4.920635e-01 -9.047619e-01 0.000000e+00
5.238095e-01 -9.047619e-01 0.000000e+00
5.555556e-01 -9.047619e-01 0.000000e+00
5.873016e-01 -9.047619e-01 0.000000e+00
6.190476e-01 -9.047619e-01 0.000000e+00
[...]
POINT_DATA 4096 
SCALARS concentration double 1 
LOOKUP_TABLE default 
1.057236e+00 
1.037494e+00 
1.018238e+00 
9.994935e-01 
9.812854e-01 
9.636407e-01 
9.465866e-01 
9.301513e-01 
9.143641e-01 
8.992550e-01 
8.848549e-01 
8.711953e-01 
8.583082e-01 
8.462260e-01 
8.349810e-01 
8.246054e-01 
8.151307e-01 
8.065875e-01 
7.990048e-01 
7.924096e-01 
7.868260e-01 
7.822746e-01 
7.787697e-01 
7.763070e-01 
7.747373e-01 
7.749523e-01 
7.768652e-01 
7.801037e-01 
7.845353e-01 
7.900844e-01 
7.966989e-01 
8.043368e-01 
8.129586e-01 
8.225263e-01 
8.330048e-01 
8.443599e-01 
8.565581e-01 
8.695659e-01 
8.833507e-01 
8.978799e-01 
9.131217e-01 
9.290449e-01 
9.456195e-01 
9.628159e-01 
9.806058e-01 
9.989619e-01 
1.017858e+00 
1.037269e+00 
1.057170e+00 
1.077538e+00 
1.098352e+00 
1.119590e+00 
1.141232e+00 
1.163260e+00 
1.185654e+00 
1.208398e+00 
1.231476e+00 
1.254871e+00 
1.278570e+00 
1.302558e+00 
1.326821e+00 
1.351348e+00 
1.376126e+00 
1.401143e+00 
1.032403e+00 
1.012274e+00 
9.926275e-01 
9.734908e-01 
9.548903e-01 
9.368534e-01 
9.194088e-01 
9.025858e-01 
8.864153e-01 
8.709288e-01 
8.561592e-01 
8.421399e-01 
8.289050e-01 
8.164890e-01 
8.049267e-01 
7.942528e-01 
7.845013e-01 
7.757053e-01 
7.678965e-01 
7.611042e-01 
7.553548e-01 
7.506708e-01 
7.470676e-01 
7.445416e-01 
7.429496e-01 
7.432413e-01 
7.452600e-01 
7.486314e-01 
7.532234e-01 
7.589607e-01 
7.657905e-01 
7.736695e-01 
7.825559e-01 
7.924099e-01 
8.031947e-01 
8.148738e-01 
8.274110e-01 
8.407708e-01 
8.549182e-01 
8.698188e-01 
8.854389e-01 
9.017457e-01 
9.187074e-01 
9.362932e-01 
9.544736e-01 
9.732200e-01 
9.925051e-01 
1.012303e+00 
1.032588e+00 
1.053338e+00 
1.074528e+00 
1.096138e+00 
1.118148e+00 
1.140537e+00 
1.163288e+00 
1.186383e+00 
1.209805e+00 
1.233538e+00 
1.257569e+00 
1.281882e+00 
1.306464e+00 
1.331304e+00 
1.356388e+00 
1.381706e+00 
1.007887e+00 
9.873595e-01 
9.673119e-01 
9.477712e-01 
9.287653e-01 
9.103225e-01 
8.924726e-01 
8.752466e-01 
8.586767e-01 
8.427964e-01 
8.276402e-01 
8.132436e-01 
7.996432e-01 
7.868758e-01 
7.749787e-01 
7.639894e-01 
7.539447e-01 
7.448806e-01 
7.368315e-01 
7.298295e-01 
7.239037e-01 
7.190784e-01 
7.153708e-01 
7.127780e-01 
7.111627e-01 
7.115340e-01 
7.136620e-01 
7.171720e-01 
7.219325e-01 
7.278683e-01 
7.349256e-01 
7.430594e-01 
7.522259e-01 
7.623827e-01 
7.734910e-01 
7.855118e-01 
7.984061e-01 
8.121357e-01 
8.266634e-01 
8.419527e-01 
8.579678e-01 
8.746742e-01 
8.920384e-01 
9.100283e-01 
9.286129e-01 
9.477625e-01 
9.674489e-01 
9.876450e-01 
1.008325e+00 
1.029465e+00 
1.051041e+00 
1.073032e+00 
1.095416e+00 
1.118174e+00 
1.141287e+00 
1.164737e+00 
1.188508e+00 
1.212584e+00 
1.236950e+00 
1.261592e+00 
1.286496e+00 
1.311650e+00 
1.337042e+00 
1.362661e+00 
9.837075e-01 
9.627714e-01 
9.423109e-01 
9.223539e-01 
9.029291e-01 
8.840661e-01 
8.657959e-01 
8.481508e-01 
8.311647e-01 
8.148729e-01 
7.993120e-01 
7.845197e-01 
7.705348e-01 
7.573970e-01 
7.451463e-01 
7.338231e-01 
7.234674e-01 
7.141183e-01 
7.058135e-01 
6.985881e-01 
6.924740e-01 
6.874980e-01 
6.836793e-01 
6.810157e-01 
6.793763e-01 
6.798303e-01 
6.820716e-01 
6.857266e-01 
6.906647e-01 
6.968104e-01 
7.041087e-01 
7.125125e-01 
7.219753e-01 
7.324524e-01 
7.439018e-01 
7.562823e-01 
7.695519e-01 
7.836696e-01 
7.985954e-01 
8.142907e-01 
8.307175e-01 
8.478395e-01 
8.656216e-01 
8.840299e-01 
9.030322e-01 
9.225977e-01 
9.426972e-01 
9.633026e-01 
9.843875e-01 
1.005927e+00 
1.027897e+00 
1.050276e+00 
1.073041e+00 
1.096174e+00 
1.119654e+00 
1.143465e+00 
1.167589e+00 
1.192011e+00 
1.216716e+00 
1.241689e+00 
1.266917e+00 
1.292388e+00 
1.318089e+00 
1.344011e+00 
9.598846e-01 
9.385290e-01 
9.176439e-01 
8.972580e-01 
8.774007e-01 
8.581029e-01 
8.393966e-01 
8.213158e-01 
8.038960e-01 
7.871743e-01 
7.711896e-01 
7.559817e-01 
7.415923e-01 
7.280636e-01 
7.154390e-01 
7.037619e-01 
6.930758e-01 
6.834235e-01 
6.748461e-01 
6.673822e-01 
6.610670e-01 
6.559301e-01 
6.519928e-01 
6.492544e-01 
6.475899e-01 
6.481295e-01 
6.504886e-01 
6.542961e-01 
6.594220e-01 
6.657905e-01 
6.733448e-01 
6.820352e-01 
6.918125e-01 
7.026286e-01 
7.144386e-01 
7.271980e-01 
7.408624e-01 
7.553874e-01 
7.707303e-01 
7.868497e-01 
8.037058e-01 
8.212600e-01 
8.394755e-01 
8.583170e-01 
8.777508e-01 
8.977450e-01 
9.182693e-01 
9.392948e-01 
9.607944e-01 
9.827425e-01 
1.005115e+00 
1.027888e+00 
1.051042e+00 
1.074555e+00 
1.098408e+00 
1.122584e+00 
1.147065e+00 
1.171836e+00 
1.196882e+00 
1.222188e+00 
1.247742e+00 
1.273530e+00 
1.299542e+00 
1.325766e+00 
9.364372e-01 
9.146520e-01 
8.933308e-01 
8.725034e-01 
8.522000e-01 
8.324524e-01 
8.132940e-01 
7.947604e-01 
7.768887e-01 
7.597180e-01 
7.432893e-01 
7.276451e-01 
7.128297e-01 
6.988884e-01 
6.858680e-01 
6.738154e-01 
6.627780e-01 
6.528025e-01 
6.439340e-01 
6.362151e-01 
6.296846e-01 
6.243755e-01 
6.203116e-01 
6.174939e-01 
6.158032e-01 
6.164311e-01 
6.189130e-01 
6.228811e-01 
6.282063e-01 
6.348119e-01 
6.426387e-01 
6.516342e-01 
6.617457e-01 
6.729216e-01 
6.851133e-01 
6.982729e-01 
7.123528e-01 
7.273057e-01 
7.430857e-01 
7.596486e-01 
7.769522e-01 
7.949561e-01 
8.136213e-01 
8.329112e-01 
8.527906e-01 
8.732265e-01 
8.941874e-01 
9.156439e-01 
9.375680e-01 
9.599335e-01 
9.827157e-01 
1.005891e+00 
1.029439e+00 
1.053337e+00 
1.077568e+00 
1.102112e+00 
1.126954e+00 
1.152077e+00 
1.177466e+00 
1.203107e+00 
1.228987e+00 
1.255094e+00 
1.281416e+00 
1.307943e+00 
9.133895e-01 
8.911655e-01 
8.693973e-01 
8.481161e-01 
8.273530e-01 
8.071408e-01 
7.875142e-01 
7.685103e-01 
7.501680e-01 
7.325284e-01 
7.156348e-01 
6.995324e-01 
6.842683e-01 
6.698913e-01 
6.564515e-01 
6.440001e-01 
6.325885e-01 
6.222678e-01 
6.130878e-01 
6.050955e-01 
5.983339e-01 
5.928399e-01 
5.886402e-01 
5.857381e-01 
5.840197e-01 
5.847368e-01 
5.873458e-01 
5.914832e-01 
5.970200e-01 
6.038780e-01 
6.119954e-01 
6.213159e-01 
6.317829e-01 
6.433410e-01 
6.559374e-01 
6.695203e-01 
6.840383e-01 
6.994412e-01 
7.156796e-01 
7.327065e-01 
7.504772e-01 
7.689488e-01 
7.880809e-01 
8.078349e-01 
8.281745e-01 
8.490653e-01 
8.704751e-01 
8.923735e-01 
9.147319e-01 
9.375235e-01 
9.607234e-01 
9.843080e-01 
1.008255e+00 
1.032545e+00 
1.057157e+00 
1.082074e+00 
1.107278e+00 
1.132755e+00 
1.158489e+00 
1.184466e+00 
1.210673e+00 
1.237099e+00 
1.263731e+00 
1.290560e+00 
8.907863e-01 
8.681137e-01 
8.458870e-01 
8.241394e-01 
8.029026e-01 
7.822104e-01 
7.620987e-01 
7.426061e-01 
7.237734e-01 
7.056436e-01 
6.882625e-01 
6.716780e-01 
6.559404e-01 
6.411020e-01 
6.272168e-01 
6.143403e-01 
6.025288e-01 
5.918382e-01 
5.823234e-01 
5.740366e-01 
5.670257e-01 
5.613318e-01 
5.569856e-01 
5.539929e-01 
5.522446e-01 
5.530526e-01 
5.557941e-01 
5.601099e-01 
5.658714e-01 
5.729984e-01 
5.814254e-01 
5.910919e-01 
6.019374e-01 
6.139017e-01 
6.269274e-01 
6.409579e-01 
6.559380e-01 
6.718138e-01 
6.885328e-01 
7.060449e-01 
7.243023e-01 
7.432604e-01 
7.628765e-01 
7.831105e-01 
8.039248e-01 
8.252838e-01 
8.471544e-01 
8.695054e-01 
8.923077e-01 
9.155341e-01 
9.391591e-01 
9.631590e-01 
9.875117e-01 
1.012197e+00 
1.037194e+00 
1.062486e+00 
1.088057e+00 
1.113889e+00 
1.139969e+00 
1.166283e+00 
1.192818e+00 
1.219562e+00 
1.246504e+00 
1.273633e+00 
8.686630e-01 
8.455293e-01 
8.228315e-01 
8.006038e-01 
7.788785e-01 
7.576900e-01 
7.370756e-01 
7.170751e-01 
6.977310e-01 
6.790886e-01 
6.611960e-01 
6.441041e-01 
6.278664e-01 
6.125389e-01 
5.981802e-01 
5.848503e-01 
5.726106e-01 
5.615229e-01 
5.516477e-01 
5.430431e-01 
5.357626e-01 
5.298527e-01 
5.253482e-01 
5.222585e-01 
5.204769e-01 
5.213706e-01 
5.242480e-01 
5.287522e-01 
5.347532e-01 
5.421677e-01 
5.509261e-01 
5.609628e-01 
5.722120e-01 
5.846085e-01 
5.980894e-01 
6.125934e-01 
6.280607e-01 
6.444334e-01 
6.616560e-01 
6.796745e-01 
6.984389e-01 
7.179019e-01 
7.380191e-01 
7.587488e-01 
7.800519e-01 
8.018919e-01 
8.242347e-01 
8.470484e-01 
8.703035e-01 
8.939723e-01 
9.180291e-01 
9.424501e-01 
9.672130e-01 
9.922971e-01 
1.017683e+00 
1.043353e+00 
1.069291e+00 
1.095480e+00 
1.121907e+00 
1.148558e+00 
1.175420e+00 
1.202481e+00 
1.229732e+00 
1.257161e+00 
8.470055e-01 
8.233975e-01 
8.002182e-01 
7.774983e-01 
7.552708e-01 
7.335711e-01 
7.124372e-01 
6.919103e-01 
6.720344e-01 
6.528571e-01 
6.344288e-01 
6.168035e-01 
6.000382e-01 
5.841931e-01 
5.693311e-01 
5.555178e-01 
5.428202e-01 
5.313062e-01 
5.210433e-01 
5.120960e-01 
5.045246e-01 
4.983815e-01 
4.937070e-01 
4.905141e-01 
4.886999e-01 
4.896904e-01 
4.927155e-01 
4.974238e-01 
5.036844e-01 
5.114105e-01 
5.205271e-01 
5.309628e-01 
5.426453e-01 
5.555031e-01 
5.694680e-01 
5.844733e-01 
6.004544e-01 
6.173493e-01 
6.350986e-01 
6.536454e-01 
6.729366e-01 
6.929226e-01 
7.135571e-01 
7.347967e-01 
7.566012e-01 
7.789329e-01 
8.017570e-01 
8.250412e-01 
8.487553e-01 
8.728714e-01 
8.973638e-01 
9.222085e-01 
9.473832e-01 
9.728675e-01 
9.986421e-01 
1.024689e+00 
1.050993e+00 
1.077537e+00 
1.104308e+00 
1.131292e+00 
1.158478e+00 
1.185854e+00 
1.213409e+00 
1.241134e+00 
8.258644e-01 
8.017775e-01 
7.781064e-01 
7.548824e-01 
7.321392e-01 
7.099128e-01 
6.882422e-01 
6.671695e-01 
6.467406e-01 
6.270047e-01 
6.080150e-01 
5.898284e-01 
5.725058e-01 
5.561116e-01 
5.407138e-01 
5.263835e-01 
5.131943e-01 
5.012211e-01 
4.905389e-01 
4.812202e-01 
4.733328e-01 
4.669365e-01 
4.620775e-01 
4.587736e-01 
4.569249e-01 
4.580144e-01 
4.611957e-01 
4.661230e-01 
4.726635e-01 
4.807259e-01 
4.902291e-01 
5.010943e-01 
5.132422e-01 
5.265944e-01 
5.410762e-01 
5.566149e-01 
5.731408e-01 
5.905870e-01 
6.088905e-01 
6.279909e-01 
6.478323e-01 
6.683625e-01 
6.895335e-01 
7.113003e-01 
7.336216e-01 
7.564587e-01 
7.797762e-01 
8.035412e-01 
8.277233e-01 
8.522945e-01 
8.772289e-01 
9.025026e-01 
9.280936e-01 
9.539813e-01 
9.801470e-01 
1.006573e+00 
1.033244e+00 
1.060144e+00 
1.087259e+00 
1.114578e+00 
1.142087e+00 
1.169776e+00 
1.197635e+00 
1.225654e+00 
8.052805e-01 
7.807069e-01 
7.565345e-01 
7.327949e-01 
7.095222e-01 
6.867534e-01 
6.645282e-01 
6.428901e-01 
6.218861e-01 
6.015673e-01 
5.819892e-01 
5.632121e-01 
5.453006e-01 
5.283236e-01 
5.123545e-01 
4.974706e-01 
4.837527e-01 
4.712837e-01 
4.601470e-01 
4.504244e-01 
4.421927e-01 
4.355201e-01 
4.304603e-01 
4.270368e-01 
4.251515e-01 
4.263418e-01 
4.296890e-01 
4.348521e-01 
4.416958e-01 
4.501228e-01 
4.600444e-01 
4.713734e-01 
4.840219e-01 
4.979040e-01 
5.129374e-01 
5.290430e-01 
5.461452e-01 
5.641724e-01 
5.830572e-01 
6.027361e-01 
6.231501e-01 
6.442448e-01 
6.659702e-01 
6.882800e-01 
7.111317e-01 
7.344860e-01 
7.583069e-01 
7.825611e-01 
8.072182e-01 
8.322500e-01 
8.576308e-01 
8.833368e-01 
9.093463e-01 
9.356390e-01 
9.621965e-01 
9.890017e-01 
1.016039e+00 
1.043294e+00 
1.070753e+00 
1.098403e+00 
1.126234e+00 
1.154234e+00 
1.182393e+00 
1.210703e+00 
7.852897e-01 
7.602233e-01 
7.355410e-01 
7.112754e-01 
6.874607e-01 
6.641342e-01 
6.413368e-01 
6.191130e-01 
5.975111e-01 
5.765842e-01 
5.563900e-01 
5.369916e-01 
5.184577e-01 
5.008619e-01 
4.842833e-01 
4.688060e-01 
4.545185e-01 
4.415127e-01 
4.298821e-01 
4.197189e-01 
4.111106e-01 
4.041355e-01 
3.988563e-01 
3.953032e-01 
3.933791e-01 
3.946719e-01 
3.981961e-01 
4.036145e-01 
4.107880e-01 
4.196119e-01 
4.299879e-01 
4.418189e-01 
4.550074e-01 
4.694583e-01 
4.850812e-01 
5.017897e-01 
5.195020e-01 
5.381413e-01 
5.576359e-01 
5.779189e-01 
5.989283e-01 
6.206075e-01 
6.429048e-01 
6.657728e-01 
6.891678e-01 
7.130502e-01 
7.373833e-01 
7.621340e-01 
7.872716e-01 
8.127684e-01 
8.385986e-01 
8.647390e-01 
8.911681e-01 
9.178661e-01 
9.448152e-01 
9.719985e-01 
9.994010e-01 
1.027008e+00 
1.054808e+00 
1.082787e+00 
1.110935e+00 
1.139242e+00 
1.167699e+00 
1.196295e+00 
7.659289e-01 
7.403648e-01 
7.151655e-01 
6.903647e-01 
6.659966e-01 
6.420987e-01 
6.187124e-01 
5.958831e-01 
5.736607e-01 
5.520999e-01 
5.312608e-01 
5.112094e-01 
4.920180e-01 
4.737653e-01 
4.565361e-01 
4.404219e-01 
4.255197e-01 
4.119316e-01 
3.997626e-01 
3.891171e-01 
3.800953e-01 
3.727875e-01 
3.672673e-01 
3.635732e-01 
3.616076e-01 
3.630047e-01 
3.667188e-01 
3.724153e-01 
3.799495e-01 
3.892070e-01 
4.000783e-01 
4.124544e-01 
4.262263e-01 
4.412888e-01 
4.575423e-01 
4.748925e-01 
4.932508e-01 
5.125349e-01 
5.326686e-01 
5.535817e-01 
5.752095e-01 
5.974932e-01 
6.203795e-01 
6.438200e-01 
6.677704e-01 
6.921906e-01 
7.170439e-01 
7.422972e-01 
7.679200e-01 
7.938849e-01 
8.201667e-01 
8.467425e-01 
8.735914e-01 
9.006940e-01 
9.280329e-01 
9.555920e-01 
9.833566e-01 
1.011313e+00 
1.039449e+00 
1.067753e+00 
1.096214e+00 
1.124823e+00 
1.153571e+00 
1.182449e+00 
7.472360e-01 
7.211699e-01 
6.954486e-01 
6.701056e-01 
6.451746e-01 
6.206935e-01 
5.967037e-01 
5.732514e-01 
5.503873e-01 
5.281677e-01 
5.066550e-01 
4.859180e-01 
4.660328e-01 
4.470826e-01 
4.291588e-01 
4.123603e-01 
3.967936e-01 
3.825722e-01 
3.698142e-01 
3.586386e-01 
3.491604e-01 
3.414848e-01 
3.356982e-01 
3.318498e-01 
3.298396e-01 
3.313435e-01 
3.352626e-01 
3.412636e-01 
3.491939e-01 
3.589271e-01 
3.703399e-01 
3.833090e-01 
3.977126e-01 
4.134336e-01 
4.303621e-01 
4.483952e-01 
4.674372e-01 
4.874000e-01 
5.082029e-01 
5.297725e-01 
5.520413e-01 
5.749488e-01 
5.984405e-01 
6.224669e-01 
6.469836e-01 
6.719503e-01 
6.973305e-01 
7.230913e-01 
7.492028e-01 
7.756380e-01 
8.023721e-01 
8.293829e-01 
8.566499e-01 
8.841547e-01 
9.118804e-01 
9.398115e-01 
9.679339e-01 
9.962346e-01 
1.024702e+00 
1.053325e+00 
1.082093e+00 
1.110998e+00 
1.140031e+00 
1.169185e+00 
7.292629e-01 
7.026915e-01 
6.764453e-01 
6.505552e-01 
6.250546e-01 
5.999810e-01 
5.753757e-01 
5.512848e-01 
5.277597e-01 
5.048577e-01 
4.826429e-01 
4.611869e-01 
4.405692e-01 
4.208783e-01 
4.022116e-01 
3.846764e-01 
3.683894e-01 
3.534767e-01 
3.400717e-01 
3.283104e-01 
3.183257e-01 
3.102404e-01 
3.041572e-01 
3.001387e-01 
2.980802e-01 
2.996930e-01 
3.038347e-01 
3.101708e-01 
3.185382e-01 
3.287952e-01 
3.408017e-01 
3.544176e-01 
3.695060e-01 
3.859366e-01 
4.035881e-01 
4.223478e-01 
4.421128e-01 
4.627890e-01 
4.842913e-01 
5.065431e-01 
5.294748e-01 
5.530243e-01 
5.771361e-01 
6.017604e-01 
6.268527e-01 
6.523729e-01 
6.782849e-01 
7.045563e-01 
7.311578e-01 
7.580630e-01 
7.852480e-01 
8.126913e-01 
8.403733e-01 
8.682761e-01 
8.963837e-01 
9.246814e-01 
9.531557e-01 
9.817945e-01 
1.010587e+00 
1.039522e+00 
1.068590e+00 
1.097784e+00 
1.127095e+00 
1.156516e+00 
7.120631e-01 
6.849887e-01 
6.582155e-01 
6.317747e-01 
6.056987e-01 
5.800242e-01 
5.547917e-01 
5.300471e-01 
5.058418e-01 
4.822340e-01 
4.592888e-01 
4.370801e-01 
4.156907e-01 
3.952137e-01 
3.757532e-01 
3.574248e-01 
3.403562e-01 
3.246877e-01 
3.105699e-01 
2.981587e-01 
2.876089e-01 
2.790649e-01 
2.726493e-01 
2.684422e-01 
2.663283e-01 
2.680379e-01 
2.724203e-01 
2.791274e-01 
2.879803e-01 
2.988181e-01 
3.114795e-01 
3.258043e-01 
3.416379e-01 
3.588352e-01 
3.772618e-01 
3.967953e-01 
4.173247e-01 
4.387502e-01 
4.609828e-01 
4.839428e-01 
5.075588e-01 
5.317676e-01 
5.565133e-01 
5.817462e-01 
6.074219e-01 
6.335008e-01 
6.599477e-01 
6.867308e-01 
7.138217e-01 
7.411950e-01 
7.688278e-01 
7.966994e-01 
8.247912e-01 
8.530862e-01 
8.815693e-01 
9.102267e-01 
9.390456e-01 
9.680147e-01 
9.971235e-01 
1.026363e+00 
1.055723e+00 
1.085197e+00 
1.114778e+00 
1.144457e+00 
6.956770e-01 
6.680988e-01 
6.408002e-01 
6.138079e-01 
5.871531e-01 
5.608711e-01 
5.350016e-01 
5.095897e-01 
4.846864e-01 
4.603498e-01 
4.366459e-01 
4.136499e-01 
3.914474e-01 
3.701359e-01 
3.498258e-01 
3.306416e-01 
3.127233e-01 
2.962264e-01 
2.813206e-01 
2.681855e-01 
2.570025e-01 
2.479428e-01 
2.411537e-01 
2.367384e-01 
2.345678e-01 
2.363870e-01 
2.410394e-01 
2.481646e-01 
2.575635e-01 
2.690506e-01 
2.824388e-01 
2.975440e-01 
3.141903e-01 
3.322154e-01 
3.514714e-01 
3.718257e-01 
3.931596e-01 
4.153681e-01 
4.383583e-01 
4.620481e-01 
4.863652e-01 
5.112458e-01 
5.366343e-01 
5.624813e-01 
5.887431e-01 
6.153811e-01 
6.423610e-01 
6.696523e-01 
6.972276e-01 
7.250628e-01 
7.531360e-01 
7.814278e-01 
8.099205e-01 
8.385984e-01 
8.674472e-01 
8.964540e-01 
9.256071e-01 
9.548960e-01 
9.843109e-01 
1.013843e+00 
1.043485e+00 
1.073228e+00 
1.103067e+00 
1.132996e+00 
6.801500e-01 
6.520780e-01 
6.242592e-01 
5.967186e-01 
5.694860e-01 
5.425949e-01 
5.160836e-01 
4.899959e-01 
4.643816e-01 
4.392980e-01 
4.148110e-01 
3.909964e-01 
3.679419e-01 
3.457482e-01 
3.245317e-01 
3.044258e-01 
2.855829e-01 
2.681752e-01 
2.523942e-01 
2.384476e-01 
2.265493e-01 
2.169044e-01 
2.096908e-01 
2.050424e-01 
2.028100e-01 
2.047397e-01 
2.096932e-01 
2.172908e-01 
2.273060e-01 
2.395219e-01 
2.537196e-01 
2.696856e-01 
2.872200e-01 
3.061412e-01 
3.262869e-01 
3.475136e-01 
3.696957e-01 
3.927231e-01 
4.165002e-01 
4.409433e-01 
4.659795e-01 
4.915455e-01 
5.175861e-01 
5.440531e-01 
5.709042e-01 
5.981019e-01 
6.256134e-01 
6.534096e-01 
6.814649e-01 
7.097562e-01 
7.382632e-01 
7.669677e-01 
7.958534e-01 
8.249056e-01 
8.541113e-01 
8.834585e-01 
9.129365e-01 
9.425357e-01 
9.722474e-01 
1.002063e+00 
1.031977e+00 
1.061980e+00 
1.092069e+00 
1.122236e+00 
6.655445e-01 
6.369889e-01 
6.086587e-01 
5.805773e-01 
5.527722e-01 
5.252748e-01 
4.981216e-01 
4.713540e-01 
4.450202e-01 
4.191756e-01 
3.938850e-01 
3.692236e-01 
3.452797e-01 
3.221564e-01 
2.999745e-01 
2.788756e-01 
2.590248e-01 
2.406124e-01 
2.238552e-01 
2.089932e-01 
1.962809e-01 
1.859660e-01 
1.782652e-01 
1.733545e-01 
1.710546e-01 
1.730955e-01 
1.783879e-01 
1.865248e-01 
1.972414e-01 
2.102812e-01 
2.253849e-01 
2.423037e-01 
2.608097e-01 
2.807001e-01 
3.017975e-01 
3.239482e-01 
3.470199e-01 
3.708991e-01 
3.954880e-01 
4.207025e-01 
4.464702e-01 
4.727292e-01 
4.994256e-01 
5.265130e-01 
5.539507e-01 
5.817034e-01 
6.097400e-01 
6.380333e-01 
6.665593e-01 
6.952967e-01 
7.242267e-01 
7.533327e-01 
7.825997e-01 
8.120143e-01 
8.415647e-01 
8.712401e-01 
9.010309e-01 
9.309284e-01 
9.609246e-01 
9.910125e-01 
1.021186e+00 
1.051438e+00 
1.081764e+00 
1.112159e+00 
6.519172e-01 
6.228925e-01 
5.940645e-01 
5.654543e-01 
5.370872e-01 
5.089919e-01 
4.812021e-01 
4.537565e-01 
4.267004e-01 
4.000867e-01 
3.739775e-01 
3.484462e-01 
3.235797e-01 
2.994817e-01 
2.762758e-01 
2.541099e-01 
2.331608e-01 
2.136380e-01 
1.957864e-01 
1.798849e-01 
1.662378e-01 
1.551488e-01 
1.468828e-01 
1.416746e-01 
1.393007e-01 
1.414534e-01 
1.471314e-01 
1.558909e-01 
1.674133e-01 
1.813913e-01 
1.975147e-01 
2.154917e-01 
2.350618e-01 
2.559995e-01 
2.781125e-01 
3.012379e-01 
3.252384e-01 
3.499981e-01 
3.754190e-01 
4.014179e-01 
4.279244e-01 
4.548786e-01 
4.822292e-01 
5.099321e-01 
5.379492e-01 
5.662475e-01 
5.947983e-01 
6.235765e-01 
6.525601e-01 
6.817299e-01 
7.110689e-01 
7.405619e-01 
7.701955e-01 
7.999579e-01 
8.298385e-01 
8.598276e-01 
8.899167e-01 
9.200982e-01 
9.503651e-01 
9.807112e-01 
1.011131e+00 
1.041618e+00 
1.072170e+00 
1.102781e+00 
6.393270e-01 
6.098525e-01 
5.805451e-01 
5.514239e-01 
5.225110e-01 
4.938324e-01 
4.654181e-01 
4.373036e-01 
4.095303e-01 
3.821470e-01 
3.552120e-01 
3.287950e-01 
3.029795e-01 
2.778672e-01 
2.535816e-01 
2.302744e-01 
2.081316e-01 
1.873809e-01 
1.682973e-01 
1.512059e-01 
1.364748e-01 
1.244816e-01 
1.155509e-01 
1.100028e-01 
1.075478e-01 
1.098128e-01 
1.159349e-01 
1.254223e-01 
1.378798e-01 
1.529352e-01 
1.702128e-01 
1.893679e-01 
2.101032e-01 
2.321700e-01 
2.553622e-01 
2.795100e-01 
3.044733e-01 
3.301363e-01 
3.564027e-01 
3.831923e-01 
4.104378e-01 
4.380829e-01 
4.660796e-01 
4.943871e-01 
5.229705e-01 
5.517998e-01 
5.808489e-01 
6.100954e-01 
6.395195e-01 
6.691042e-01 
6.988344e-01 
7.286967e-01 
7.586795e-01 
7.887723e-01 
8.189658e-01 
8.492517e-01 
8.796227e-01 
9.100721e-01 
9.405939e-01 
9.711827e-01 
1.001834e+00 
1.032542e+00 
1.063305e+00 
1.094117e+00 
6.278337e-01 
5.979335e-01 
5.681710e-01 
5.385624e-01 
5.091269e-01 
4.798869e-01 
4.508686e-01 
4.221031e-01 
3.936270e-01 
3.654840e-01 
3.377269e-01 
3.104193e-01 
2.836391e-01 
2.574825e-01 
2.320694e-01 