# vtk DataFile Version 2.0 
Quadtree Mesh 
ASCII 
DATASET UNSTRUCTURED_GRID 
POINTS 4096 double 
-1.000000e+00 -1.000000e+00 0.000000e+00
-9.682540e-01 -1.000000e+00 0.000000e+00
-9.365079e-01 -1.000000e+00 0.000000e+00
-9.047619e-01 -1.000000e+00 0.000000e+00
-8.730159e-01 -1.000000e+00 0.000000e+00
-8.412698e-01 -1.000000e+00 0.000000e+00
-8.095238e-01 -1.000000e+00 0.000000e+00
-7.777778e-01 -1.000000e+00 0.000000e+00
-7.460317e-01 -1.000000e+00 0.000000e+00
-7.142857e-01 -1.000000e+00 0.000000e+00
-6.825397e-01 -1.000000e+00 0.000000e+00
-6.507937e-01 -1.000000e+00 0.000000e+00
-6.190476e-01 -1.000000e+00 0.000000e+00
-5.873016e-01 -1.000000e+00 0.000000e+00
-5.555556e-01 -1.000000e+00 0.000000e+00
-5.238095e-01 -1.000000e+00 0.000000e+00
-4.920635e-01 -1.000000e+00 0.000000e+00
-4.603175e-01 -1.000000e+00 0.000000e+00
-4.285714e-01 -1.000000e+00 0.000000e+00
-3.968254e-01 -1.000000e+00 0.000000e+00
-3.650794e-01 -1.000000e+00 0.000000e+00
-3.333333e-01 -1.000000e+00 0.000000e+00
-3.015873e-01 -1.000000e+00 0.000000e+00
-2.698413e-01 -1.000000e+00 0.000000e+00
-2.380952e-01 -1.000000e+00 0.000000e+00
-2.063492e-01 -1.000000e+00 0.000000e+00
-1.746032e-01 -1.000000e+00 0.000000e+00
-1.428571e-01 -1.000000e+00 0.000000e+00
-1.111111e-01 -1.000000e+00 0.000000e+00
-7.936508e-02 -1.000000e+00 0.000000e+00
-4.761905e-02 -1.000000e+00 0.000000e+00
-1.587302e-02 -1.000000e+00 0.000000e+00
1.587302e-02 -1.000000e+00 0.000000e+00
4.761905e-02 -1.000000e+00 0.000000e+00
7.936508e-02 -1.000000e+00 0.000000e+00
1.111111e-01 -1.000000e+00 0.000000e+00
1.428571e-01 -1.000000e+00 0.000000e+00
1.746032e-01 -1.000000e+00 0.000000e+00
2.063492e-01 -1.000000e+00 0.000000e+00
2.380952e-01 -1.000000e+00 0.000000e+00
2.698413e-01 -1.000000e+00 0.000000e+00
3.015873e-01 -1.000000e+00 0.000000e+00
3.333333e-01 -1.000000e+00 0.000000e+00
3.650794e-01 -1.000000e+00 0.000000e+00
3.968254e-01 -1.000000e+00 0.000000e+00
4.285714e-01 -1.000000e+00 0.000000e+00
4.603175e-01 -1.000000e+00 0.000000e+00
4.920635e-01 -1.000000e+00 0.000000e+00
5.238095e-01 -1.000000e+00 0.000000e+00
5.555556e-01 -1.000000e+00 0.000000e+00
5.873016e-01 -1.000000e+00 0.000000e+00
6.190476e-01 -1.000000e+00 0.000000e+00
6.507937e-01 -1.000000e+00 0.000000e+00
6.825397e-01 -1.000000e+00 0.000000e+00
7.142857e-01 -1.000000e+00 0.000000e+00
7.460317e-01 -1.000000e+00 0.000000e+00
7.777778e-01 -1.000000e+00 0.000000e+00
8.095238e-01 -1.000000e+00 0.000000e+00
8.412698e-01 -1.000000e+00 0.000000e+00
8.730159e-01 -1.000000e+00 0.000000e+00
9.047619e-01 -1.000000e+00 0.000000e+00
9.365079e-01 -1.000000e+00 0.000000e+00
9.682540e-01 -1.000000e+00 0.000000e+00
1.000000e+00 -1.000000e+00 0.000000e+00
-1.000000e+00 -9.682540e-01 0.000000e+00
-9.682540e-01 -9.682540e-01 0.000000e+00
-9.365079e-01 -9.682540e-01 0.000000e+00
-9.047619e-01 -9.682540e-01 0.000000e+00
-8.730159e-01 -9.682540e-01 0.000000e+00
-8.412698e-01 -9.682540e-01 0.000000e+00
-8.095238e-01 -9.682540e-01 0.000000e+00
-7.777778e-01 -9.682540e-01 0.000000e+00
-7.460317e-01 -9.682540e-01 0.000000e+00
-7.142857e-01 -9.682540e-01 0.000000e+00
-6.825397e-01 -9.682540e-01 0.000000e+00
-6.507937e-01 -9.682540e-01 0.000000e+00
-6.190476e-01 -9.682540e-01 0.000000e+00
-5.873016e-01 -9.682540e-01 0.000000e+00
-5.555556e-01 -9.682540e-01 0.000000e+00
-5.238095e-01 -9.682540e-01 0.000000e+00
-4.920635e-01 -9.682540e-01 0.000000e+00
-4.603175e-01 -9.682540e-01 0.000000e+00
-4.285714e-01 -9.682540e-01 0.000000e+00
-3.968254e-01 -9.682540e-01 0.000000e+00
-3.650794e-01 -9.682540e-01 0.000000e+00
-3.333333e-01 -9.682540e-01 0.000000e+00
-3.015873e-01 -9.682540e-01 0.000000e+00
-2.698413e-01 -9.682540e-01 0.000000e+00
-2.380952e-01 -9.682540e-01 0.000000e+00
-2.063492e-01 -9.682540e-01 0.000000e+00
-1.746032e-01 -9.682540e-01 0.000000e+00
-1.428571e-01 -9.682540e-01 0.000000e+00
-1.111111e-01 -9.682540e-01 0.000000e+00
-7.936508e-02 -9.682540e-01 0.000000e+00
-4.761905e-02 -9.682540e-01 0.000000e+00
-1.587302e-02 -9.682540e-01 0.000000e+00
1.587302e-02 -9.682540e-01 0.000000e+00
4.761905e-02 -9.682540e-01 0.000000e+00
7.936508e-02 -9.682540e-01 0.000000e+00
1.111111e-01 -9.682540e-01 0.000000e+00
1.428571e-01 -9.682540e-01 0.000000e+00
1.746032e-01 -9.682540e-01 0.000000e+00
2.063492e-01 -9.682540e-01 0.000000e+00
2.380952e-01 -9.682540e-01 0.000000e+00
2.698413e-01 -9.682540e-01 0.000000e+00
3.015873e-01 -9.682540e-01 0.000000e+00
3.333333e-01 -9.682540e-01 0.000000e+00
3.650794e-01 -9.682540e-01 0.000000e+00
3.968254e-01 -9.682540e-01 0.000000e+00
4.285714e-01 -9.682540e-01 0.000000e+00
4.603175e-01 -9.682540e-01 0.000000e+00
4.920635e-01 -9.682540e-01 0.000000e+00
5.238095e-01 -9.682540e-01 0.000000e+00
5.555556e-01 -9.682540e-01 0.000000e+00
5.873016e-01 -9.682540e-01 0.000000e+00
6.190476e-01 -9.682540e-01 0.000000e+00
6.507937e-01 -9.682540e-01 0.000000e+00
6.825397e-01 -9.682540e-01 0.000000e+00
7.142857e-01 -9.682540e-01 0.000000e+00
7.460317e-01 -9.682540e-01 0.000000e+00
7.777778e-01 -9.682540e-01 0.000000e+00
8.095238e-01 -9.682540e-01 0.000000e+00
8.412698e-01 -9.682540e-01 0.000000e+00
8.730159e-01 -9.682540e-01 0.000000e+00
9.047619e-01 -9.682540e-01 0.000000e+00
9.365079e-01 -9.682540e-01 0.000000e+00
9.682540e-01 -9.682540e-01 0.000000e+00
1.000000e+00 -9.682540e-01 0.000000e+00
-1.000000e+00 -9.365079e-01 0.000000e+00
-9.682540e-01 -9.365079e-01 0.000000e+00
-9.365079e-01 -9.365079e-01 0.000000e+00
-9.047619e-01 -9.365079e-01 0.000000e+00
-8.730159e-01 -9.365079e-01 0.000000e+00
-8.412698e-01 -9.365079e-01 0.000000e+00
-8.095238e-01 -9.365079e-01 0.000000e+00
-7.777778e-01 -9.365079e-01 0.000000e+00
-7.460317e-01 -9.365079e-01 0.000000e+00
-7.142857e-01 -9.365079e-01 0.000000e+00
-6.825397e-01 -9.365079e-01 0.000000e+00
-6.507937e-01 -9.365079e-01 0.000000e+00
-6.190476e-01 -9.365079e-01 0.000000e+00
-5.873016e-01 -9.365079e-01 0.000000e+00
-5.555556e-01 -9.365079e-01 0.000000e+00
-5.238095e-01 -9.365079e-01 0.000000e+00
-4.920635e-01 -9.365079e-01 0.000000e+00
-4.603175e-01 -9.365079e-01 0.000000e+00
-4.285714e-01 -9.365079e-01 0.000000e+00
-3.968254e-01 -9.365079e-01 0.000000e+00
-3.650794e-01 -9.365079e-01 0.000000e+00
-3.333333e-01 -9.365079e-01 0.000000e+00
-3.015873e-01 -9.365079e-01 0.000000e+00
-2.698413e-01 -9.365079e-01 0.000000e+00
-2.380952e-01 -9.365079e-01 0.000000e+00
-2.063492e-01 -9.365079e-01 0.000000e+00
-1.746032e-01 -9.365079e-01 0.000000e+00
-1.428571e-01 -9.365079e-01 0.000000e+00
-1.111111e-01 -9.365079e-01 0.000000e+00
-7.936508e-02 -9.365079e-01 0.000000e+00
-4.761905e-02 -9.365079e-01 0.000000e+00
-1.587302e-02 -9.365079e-01 0.000000e+00
1.587302e-02 -9.365079e-01 0.000000e+00
4.761905e-02 -9.365079e-01 0.000000e+00
7.936508e-02 -9.365079e-01 0.000000e+00
1.111111e-01 -9.365079e-01 0.000000e+00
1.428571e-01 -9.365079e-01 0.000000e+00
1.746032e-01 -9.365079e-01 0.000000e+00
2.063492e-01 -9.365079e-01 0.000000e+00
2.380952e-01 -9.365079e-01 0.000000e+00
2.698413e-01 -9.365079e-01 0.000000e+00
3.015873e-01 -9.365079e-01 0.000000e+00
3.333333e-01 -9.365079e-01 0.000000e+00
3.650794e-01 -9.365079e-01 0.000000e+00
3.968254e-01 -9.365079e-01 0.000000e+00
4.285714e-01 -9.365079e-01 0.000000e+00
4.603175e-01 -9.365079e-01 0.000000e+00
4.920635e-01 -9.365079e-01 0.000000e+00
5.238095e-01 -9.365079e-01 0.000000e+00
5.555556e-01 -9.365079e-01 0.000000e+00
5.873016e-01 -9.365079e-01 0.000000e+00
6.190476e-01 -9.365079e-01 0.000000e+00
6.507937e-01 -9.365079e-01 0.000000e+00
6.825397e-01 -9.365079e-01 0.000000e+00
7.142857e-01 -9.365079e-01 0.000000e+00
7.460317e-01 -9.365079e-01 0.000000e+00
7.777778e-01 -9.365079e-01 0.000000e+00
8.095238e-01 -9.365079e-01 0.000000e+00
8.412698e-01 -9.365079e-01 0.000000e+00
8.730159e-01 -9.365079e-01 0.000000e+00
9.047619e-01 -9.365079e-01 0.000000e+00
9.365079e-01 -9.365079e-01 0.000000e+00
9.682540e-01 -9.365079e-01 0.000000e+00
1.000000e+00 -9.365079e-01 0.000000e+00
-1.000000e+00 -9.047619e-01 0.000000e+00
-9.682540e-01 -9.047619e-01 0.000000e+00
-9.365079e-01 -9.047619e-01 0.000000e+00
-9.047619e-01 -9.047619e-01 0.000000e+00
-8.730159e-01 -9.047619e-01 0.000000e+00
-8.412698e-01 -9.047619e-01 0.000000e+00
-8.095238e-01 -9.047619e-01 0.000000e+00
-7.777778e-01 -9.047619e-01 0.000000e+00
-7.460317e-01 -9.047619e-01 0.000000e+00
-7.142857e-01 -9.047619e-01 0.000000e+00
-6.825397e-01 -9.047619e-01 0.000000e+00
-6.507937e-01 -9.047619e-01 0.000000e+00
-6.190476e-01 -9.047619e-01 0.000000e+00
-5.873016e-01 -9.047619e-01 0.000000e+00
-5.555556e-01 -9.047619e-01 0.000000e+00
-5.238095e-01 -9.047619e-01 0.000000e+00
-4.920635e-01 -9.047619e-01 0.000000e+00
-4.603175e-01 -9.047619e-01 0.000000e+00
-4.285714e-01 -9.047619e-01 0.000000e+00
-3.968254e-01 -9.047619e-01 0.000000e+00
-3.650794e-01 -9.047619e-01 0.000000e+00
-3.333333e-01 -9.047619e-01 0.000000e+00
-3.015873e-01 -9.047619e-01 0.000000e+00
-2.698413e-01 -9.047619e-01 0.000000e+00
-2.380952e-01 -9.047619e-01 0.000000e+00
-2.063492e-01 -9.047619e-01 0.000000e+00
-1.746032e-01 -9.047619e-01 0.000000e+00
-1.428571e-01 -9.047619e-01 0.000000e+00
-1.111111e-01 -9.047619e-01 0.000000e+00
-7.936508e-02 -9.047619e-01 0.000000e+00
-4.761905e-02 -9.047619e-01 0.000000e+00
-1.587302e-02 -9.047619e-01 0.000000e+00
1.587302e-02 -9.047619e-01 0.000000e+00
4.761905e-02 -9.047619e-01 0.000000e+00
7.936508e-02 -9.047619e-01 0.000000e+00
1.111111e-01 -9.047619e-01 0.000000e+00
1.428571e-01 -9.047619e-01 0.000000e+00
1.746032e-01 -9.047619e-01 0.000000e+00
2.063492e-01 -9.047619e-01 0.000000e+00
2.380952e-01 -9.047619e-01 0.000000e+00
2.698413e-01 -9.047619e-01 0.000000e+00
3.015873e-01 -9.047619e-01 0.000000e+00
3.333333e-01 -9.047619e-01 0.000000e+00
3.650794e-01 -9.047619e-01 0.000000e+00
3.968254e-01 -9.047619e-01 0.000000e+00
4.285714e-01 -9.047619e-01 0.000000e+00
4.603175e-01 -9.047619e-01 0.000000e+00
4.920635e-01 -9.047619e-01 0.000000e+00
5.238095e-01 -9.047619e-01 0.000000e+00
5.555556e-01 -9.047619e-01 0.000000e+00
5.873016e-01 -9.047619e-01 0.000000e+00
6.190476e-01 -9.047619e-01 0.000000e+00
[...]
POINT_DATA 4096 
SCALARS concentration double 1 
LOOKUP_TABLE default 
1.379266e+00 
1.354511e+00 
1.329942e+00 
1.305619e+00 
1.281564e+00 
1.257790e+00 
1.234311e+00 
1.211141e+00 
1.188294e+00 
1.165788e+00 
1.143639e+00 
1.121863e+00 
1.100482e+00 
1.079513e+00 
1.058979e+00 
1.038902e+00 
1.019305e+00 
1.000212e+00 
9.816507e-01 
9.636461e-01 
9.462265e-01 
9.294206e-01 
9.132582e-01 
8.977696e-01 
8.829860e-01 
8.689392e-01 
8.556616e-01 
8.431861e-01 
8.315460e-01 
8.207746e-01 
8.109054e-01 
8.019721e-01 
7.940077e-01 
7.870410e-01 
7.810949e-01 
7.761917e-01 
7.723522e-01 
7.695952e-01 
7.679457e-01 
7.676444e-01 
7.689833e-01 
7.717906e-01 
7.759042e-01 
7.812083e-01 
7.876276e-01 
7.951095e-01 
8.036116e-01 
8.130960e-01 
8.235262e-01 
8.348662e-01 
8.470802e-01 
8.601326e-01 
8.739884e-01 
8.886126e-01 
9.039712e-01 
9.200310e-01 
9.367595e-01 
9.541253e-01 
9.720982e-01 
9.906489e-01 
1.009750e+00 
1.029373e+00 
1.049495e+00 
1.070091e+00 
1.359531e+00 
1.334466e+00 
1.309579e+00 
1.284933e+00 
1.260548e+00 
1.236436e+00 
1.212613e+00 
1.189092e+00 
1.165889e+00 
1.143019e+00 
1.120499e+00 
1.098348e+00 
1.076585e+00 
1.055230e+00 
1.034306e+00 
1.013835e+00 
9.938408e-01 
9.743497e-01 
9.553881e-01 
9.369836e-01 
9.191653e-01 
9.019631e-01 
8.854079e-01 
8.695316e-01 
8.543672e-01 
8.399481e-01 
8.263088e-01 
8.134844e-01 
8.015106e-01 
7.904234e-01 
7.802593e-01 
7.710554e-01 
7.628479e-01 
7.556679e-01 
7.495406e-01 
7.444907e-01 
7.405411e-01 
7.377119e-01 
7.360288e-01 
7.357683e-01 
7.372130e-01 
7.401607e-01 
7.444405e-01 
7.499360e-01 
7.565731e-01 
7.642993e-01 
7.730712e-01 
7.828490e-01 
7.935937e-01 
8.052670e-01 
8.178305e-01 
8.312463e-01 
8.454770e-01 
8.604855e-01 
8.762357e-01 
8.926926e-01 
9.098220e-01 
9.275910e-01 
9.459678e-01 
9.649223e-01 
9.844251e-01 
1.004449e+00 
1.024967e+00 
1.045955e+00 
1.340208e+00 
1.314828e+00 
1.289621e+00 
1.264649e+00 
1.239930e+00 
1.215478e+00 
1.191307e+00 
1.167430e+00 
1.143864e+00 
1.120624e+00 
1.097728e+00 
1.075194e+00 
1.053042e+00 
1.031292e+00 
1.009968e+00 
9.890929e-01 
9.686914e-01 
9.487899e-01 
9.294160e-01 
9.105984e-01 
8.923671e-01 
8.747534e-01 
8.577894e-01 
8.415086e-01 
8.259456e-01 
8.111359e-01 
7.971162e-01 
7.839239e-01 
7.715974e-01 
7.601758e-01 
7.496993e-01 
7.402082e-01 
7.317414e-01 
7.243330e-01 
7.180115e-01 
7.128042e-01 
7.087364e-01 
7.058295e-01 
7.041101e-01 
7.038939e-01 
7.054492e-01 
7.085424e-01 
7.129947e-01 
7.186905e-01 
7.255567e-01 
7.335404e-01 
7.425969e-01 
7.526837e-01 
7.637594e-01 
7.757826e-01 
7.887124e-01 
8.025081e-01 
8.171296e-01 
8.325378e-01 
8.486944e-01 
8.655624e-01 
8.831057e-01 
9.012900e-01 
9.200821e-01 
9.394505e-01 
9.593649e-01 
9.797967e-01 
1.000719e+00 
1.022106e+00 
1.321308e+00 
1.295612e+00 
1.270084e+00 
1.244784e+00 
1.219729e+00 
1.194933e+00 
1.170410e+00 
1.146174e+00 
1.122240e+00 
1.098625e+00 
1.075346e+00 
1.052422e+00 
1.029873e+00 
1.007720e+00 
9.859875e-01 
9.646982e-01 
9.438782e-01 
9.235545e-01 
9.037556e-01 
8.845111e-01 
8.658521e-01 
8.478109e-01 
8.304211e-01 
8.137179e-01 
7.977374e-01 
7.825174e-01 
7.680970e-01 
7.545163e-01 
7.418168e-01 
7.300412e-01 
7.192333e-01 
7.094367e-01 
7.006938e-01 
6.930421e-01 
6.865133e-01 
6.811383e-01 
6.769446e-01 
6.739553e-01 
6.721973e-01 
6.720302e-01 
6.737010e-01 
6.769453e-01 
6.815781e-01 
6.874848e-01 
6.945934e-01 
7.028503e-01 
7.122085e-01 
7.226228e-01 
7.340485e-01 
7.464411e-01 
7.597563e-01 
7.739508e-01 
7.889817e-01 
8.048074e-01 
8.213873e-01 
8.386824e-01 
8.566549e-01 
8.752686e-01 
8.944892e-01 
9.142837e-01 
9.346209e-01 
9.554711e-01 
9.768065e-01 
9.986007e-01 
1.302851e+00 
1.276837e+00 
1.250988e+00 
1.225358e+00 
1.199965e+00 
1.174823e+00 
1.149945e+00 
1.125345e+00 
1.101039e+00 
1.077043e+00 
1.053375e+00 
1.030054e+00 
1.007101e+00 
9.845376e-01 
9.623868e-01 
9.406736e-01 
9.194243e-01 
8.986666e-01 
8.784296e-01 
8.587440e-01 
8.396417e-01 
8.211563e-01 
8.033228e-01 
7.861779e-01 
7.697598e-01 
7.541086e-01 
7.392660e-01 
7.252750e-01 
7.121808e-01 
7.000301e-01 
6.888702e-01 
6.787483e-01 
6.697109e-01 
6.617992e-01 
6.550490e-01 
6.494946e-01 
6.451665e-01 
6.420894e-01 
6.402905e-01 
6.401771e-01 
6.419685e-01 
6.453698e-01 
6.501918e-01 
6.563216e-01 
6.636878e-01 
6.722354e-01 
6.819146e-01 
6.926768e-01 
7.044734e-01 
7.172564e-01 
7.309782e-01 
7.455920e-01 
7.610521e-01 
7.773143e-01 
7.943356e-01 
8.120749e-01 
8.304925e-01 
8.495507e-01 
8.692136e-01 
8.894470e-01 
9.102186e-01 
9.314979e-01 
9.532563e-01 
9.754665e-01 
1.284855e+00 
1.258524e+00 
1.232353e+00 
1.206391e+00 
1.180658e+00 
1.155167e+00 
1.129931e+00 
1.104964e+00 
1.080281e+00 
1.055900e+00 
1.031838e+00 
1.008114e+00 
9.847502e-01 
9.617675e-01 
9.391902e-01 
9.170433e-01 
8.953538e-01 
8.741500e-01 
8.534616e-01 
8.333202e-01 
8.137585e-01 
7.948115e-01 
7.765154e-01 
7.589087e-01 
7.420318e-01 
7.259273e-01 
7.106396e-01 
6.962154e-01 
6.827035e-01 
6.701548e-01 
6.586205e-01 
6.481519e-01 
6.387998e-01 
6.306101e-01 
6.236226e-01 
6.178759e-01 
6.134036e-01 
6.102328e-01 
6.083905e-01 
6.083350e-01 
6.102513e-01 
6.138161e-01 
6.188373e-01 
6.252038e-01 
6.328445e-01 
6.417022e-01 
6.517237e-01 
6.628560e-01 
6.750465e-01 
6.882429e-01 
7.023938e-01 
7.174489e-01 
7.333594e-01 
7.500782e-01 
7.675600e-01 
7.857612e-01 
8.046405e-01 
8.241585e-01 
8.442777e-01 
8.649629e-01 
8.861806e-01 
9.078997e-01 
9.300905e-01 
9.527255e-01 
1.267339e+00 
1.240689e+00 
1.214193e+00 
1.187899e+00 
1.161825e+00 
1.135983e+00 
1.110386e+00 
1.085049e+00 
1.059986e+00 
1.035216e+00 
1.010755e+00 
9.866226e-01 
9.628408e-01 
9.394317e-01 
9.164194e-01 
8.938294e-01 
8.716890e-01 
8.500270e-01 
8.288738e-01 
8.082615e-01 
7.882241e-01 
7.687974e-01 
7.500193e-01 
7.319302e-01 
7.145726e-01 
6.979918e-01 
6.822355e-01 
6.673540e-01 
6.534005e-01 
6.404296e-01 
6.284969e-01 
6.176585e-01 
6.079700e-01 
5.994820e-01 
5.922396e-01 
5.862860e-01 
5.816588e-01 
5.783873e-01 
5.764990e-01 
5.765045e-01 
5.785497e-01 
5.822847e-01 
5.875162e-01 
5.941349e-01 
6.020689e-01 
6.112583e-01 
6.216454e-01 
6.331723e-01 
6.457817e-01 
6.594164e-01 
6.740209e-01 
6.895410e-01 
7.059245e-01 
7.231212e-01 
7.410833e-01 
7.597650e-01 
7.791230e-01 
7.991163e-01 
8.197061e-01 
8.408559e-01 
8.625314e-01 
8.847005e-01 
9.073331e-01 
9.304011e-01 
1.250301e+00 
1.223329e+00 
1.196508e+00 
1.169882e+00 
1.143466e+00 
1.117272e+00 
1.091313e+00 
1.065604e+00 
1.040159e+00 
1.014996e+00 
9.901321e-01 
9.655875e-01 
9.413830e-01 
9.175414e-01 
8.940869e-01 
8.710454e-01 
8.484444e-01 
8.263130e-01 
8.046822e-01 
7.835849e-01 
7.630557e-01 
7.431319e-01 
7.238528e-01 
7.052608e-01 
6.874009e-01 
6.703210e-01 
6.540723e-01 
6.387091e-01 
6.242889e-01 
6.108705e-01 
5.985143e-01 
5.872815e-01 
5.772329e-01 
5.684245e-01 
5.609078e-01 
5.547313e-01 
5.499372e-01 
5.465576e-01 
5.446205e-01 
5.446889e-01 
5.468659e-01 
5.507786e-01 
5.562331e-01 
5.631214e-01 
5.713701e-01 
5.809152e-01 
5.916937e-01 
6.036423e-01 
6.166978e-01 
6.307980e-01 
6.458826e-01 
6.618931e-01 
6.787736e-01 
6.964709e-01 
7.149344e-01 
7.341159e-01 
7.539704e-01 
7.744550e-01 
7.955299e-01 
8.171574e-01 
8.393023e-01 
8.619317e-01 
8.850151e-01 
9.085241e-01 
1.233719e+00 
1.206437e+00 
1.179297e+00 
1.152340e+00 
1.125584e+00 
1.099039e+00 
1.072720e+00 
1.046639e+00 
1.020812e+00 
9.952562e-01 
9.699887e-01 
9.450292e-01 
9.203990e-01 
8.961205e-01 
8.722183e-01 
8.487182e-01 
8.256480e-01 
8.030370e-01 
7.809167e-01 
7.593204e-01 
7.382840e-01 
7.178455e-01 
6.980464e-01 
6.789306e-01 
6.605458e-01 
6.429429e-01 
6.261764e-01 
6.103050e-01 
5.953905e-01 
5.814964e-01 
5.686883e-01 
5.570333e-01 
5.465980e-01 
5.374451e-01 
5.296328e-01 
5.232158e-01 
5.182417e-01 
5.147464e-01 
5.127586e-01 
5.128920e-01 
5.152044e-01 
5.193042e-01 
5.249967e-01 
5.321748e-01 
5.407624e-01 
5.506905e-01 
5.618895e-01 
5.742897e-01 
5.878215e-01 
6.024170e-01 
6.180104e-01 
6.345388e-01 
6.519425e-01 
6.701647e-01 
6.891520e-01 
7.088540e-01 
7.292235e-01 
7.502166e-01 
7.717918e-01 
7.939105e-01 
8.165368e-01 
8.396373e-01 
8.631808e-01 
8.871388e-01 
1.217735e+00 
1.190139e+00 
1.162678e+00 
1.135392e+00 
1.108294e+00 
1.081398e+00 
1.054715e+00 
1.028260e+00 
1.002047e+00 
9.760941e-01 
9.504177e-01 
9.250375e-01 
8.999745e-01 
8.752514e-01 
8.508923e-01 
8.269230e-01 
8.033713e-01 
7.802668e-01 
7.576410e-01 
7.355280e-01 
7.139642e-01 
6.929894e-01 
6.726463e-01 
6.529812e-01 
6.340441e-01 
6.158892e-01 
5.985744e-01 
5.821631e-01 
5.667212e-01 
5.523175e-01 
5.390237e-01 
5.269134e-01 
5.160605e-01 
5.065351e-01 
4.984022e-01 
4.917242e-01 
4.865548e-01 
4.829351e-01 
4.808953e-01 
4.811033e-01 
4.835619e-01 
4.878616e-01 
4.938102e-01 
5.013014e-01 
5.102557e-01 
5.205973e-01 
5.322493e-01 
5.451343e-01 
5.591755e-01 
5.742985e-01 
5.904318e-01 
6.075075e-01 
6.254615e-01 
6.442337e-01 
6.637676e-01 
6.840107e-01 
7.049139e-01 
7.264317e-01 
7.485219e-01 
7.711447e-01 
7.942638e-01 
8.178451e-01 
8.418573e-01 
8.662712e-01 
1.202309e+00 
1.174402e+00 
1.146622e+00 
1.119006e+00 
1.091569e+00 
1.064321e+00 
1.037276e+00 
1.010447e+00 
9.838481e-01 
9.574962e-01 
9.314088e-01 
9.056050e-01 
8.801056e-01 
8.549328e-01 
8.301105e-01 
8.056643e-01 
7.816217e-01 
7.580123e-01 
7.348679e-01 
7.122230e-01 
6.901150e-01 
6.685847e-01 
6.476765e-01 
6.274390e-01 
6.079246e-01 
5.891903e-01 
5.712981e-01 
5.543155e-01 
5.383130e-01 
5.233654e-01 
5.095506e-01 
4.969495e-01 
4.856439e-01 
4.757123e-01 
4.672286e-01 
4.602637e-01 
4.548795e-01 
4.511229e-01 
4.490276e-01 
4.493135e-01 
4.519249e-01 
4.564365e-01 
4.626602e-01 
4.704897e-01 
4.798405e-01 
4.906285e-01 
5.027681e-01 
5.161727e-01 
5.307577e-01 
5.464415e-01 
5.631463e-01 
5.807988e-01 
5.993305e-01 
6.186774e-01 
6.387803e-01 
6.595841e-01 
6.810383e-01 
7.030960e-01 
7.257139e-01 
7.488519e-01 
7.724729e-01 
7.965426e-01 
8.210294e-01 
8.459041e-01 
1.187455e+00 
1.159241e+00 
1.131146e+00 
1.103205e+00 
1.075430e+00 
1.047835e+00 
1.020429e+00 
9.932268e-01 
9.662427e-01 
9.394925e-01 
9.129935e-01 
8.867643e-01 
8.608253e-01 
8.351985e-01 
8.099072e-01 
7.849769e-01 
7.604346e-01 
7.363097e-01 
7.126342e-01 
6.894430e-01 
6.667742e-01 
6.446699e-01 
6.231760e-01 
6.023428e-01 
5.822254e-01 
5.628835e-01 
5.443830e-01 
5.267954e-01 
5.101967e-01 
4.946674e-01 
4.802928e-01 
4.671618e-01 
4.553650e-01 
4.449907e-01 
4.361230e-01 
4.288435e-01 
4.232232e-01 
4.193172e-01 
4.171640e-01 
4.175314e-01 
4.203027e-01 
4.250408e-01 
4.315622e-01 
4.397599e-01 
4.495419e-01 
4.608140e-01 
4.734799e-01 
4.874431e-01 
5.026100e-01 
5.188909e-01 
5.362013e-01 
5.544624e-01 
5.736007e-01 
5.935486e-01 
6.142440e-01 
6.356295e-01 
6.576531e-01 
6.802667e-01 
7.034262e-01 
7.270910e-01 
7.512236e-01 
7.757896e-01 
8.007574e-01 
8.260978e-01 
1.173193e+00 
1.144678e+00 
1.116272e+00 
1.088010e+00 
1.059903e+00 
1.031962e+00 
1.004200e+00 
9.766277e-01 
9.492606e-01 
9.221136e-01 
8.952036e-01 
8.685486e-01 
8.421685e-01 
8.160846e-01 
7.903197e-01 
7.648988e-01 
7.398486e-01 
7.151984e-01 
6.909803e-01 
6.672293e-01 
6.439844e-01 
6.212883e-01 
5.991883e-01 
5.777364e-01 
5.569897e-01 
5.370110e-01 
5.178695e-01 
4.996412e-01 
4.824073e-01 
4.662553e-01 
4.512779e-01 
4.375732e-01 
4.252419e-01 
4.143835e-01 
4.050942e-01 
3.974678e-01 
3.915873e-01 
3.875174e-01 
3.853036e-01 
3.857554e-01 
3.886953e-01 
3.936772e-01 
4.005234e-01 
4.091241e-01 
4.193771e-01 
4.311760e-01 
4.444117e-01 
4.589763e-01 
4.747663e-01 
4.916833e-01 
5.096357e-01 
5.285385e-01 
5.483136e-01 
5.688896e-01 
5.902016e-01 
6.121905e-01 
6.348024e-01 
6.579882e-01 
6.817030e-01 
7.059058e-01 
7.305591e-01 
7.556286e-01 
7.810827e-01 
8.068923e-01 
1.159544e+00 
1.130734e+00 
1.102024e+00 
1.073446e+00 
1.045011e+00 
1.016731e+00 
9.886162e-01 
9.606787e-01 
9.329322e-01 
9.053914e-01 
8.780724e-01 
8.509926e-01 
8.241712e-01 
7.976286e-01 
7.713871e-01 
7.454709e-01 
7.199064e-01 
6.947226e-01 
6.699515e-01 
6.456285e-01 
6.217929e-01 
5.984882e-01 
5.757624e-01 
5.536688e-01 
5.322664e-01 
5.116205e-01 
4.918037e-01 
4.728963e-01 
4.549856e-01 
4.381659e-01 
4.225384e-01 
4.082113e-01 
3.952967e-01 
3.839070e-01 
3.741529e-01 
3.661429e-01 
3.599742e-01 
3.557234e-01 
3.534446e-01 
3.539833e-01 
3.571022e-01 
3.623489e-01 
3.695522e-01 
3.785965e-01 
3.893666e-01 
4.017405e-01 
4.155944e-01 
4.308076e-01 
4.472653e-01 
4.648600e-01 
4.834925e-01 
5.030715e-01 
5.235145e-01 
5.447464e-01 
5.666998e-01 
5.893132e-01 
6.125315e-01 
6.363045e-01 
6.605870e-01 
6.853377e-01 
7.105193e-01 
7.360977e-01 
7.620418e-01 
7.883232e-01 
1.146530e+00 
1.117431e+00 
1.088423e+00 
1.059536e+00 
1.030781e+00 
1.002168e+00 
9.737066e-01 
9.454092e-01 
9.172883e-01 
8.893580e-01 
8.616335e-01 
8.341315e-01 
8.068701e-01 
7.798690e-01 
7.531496e-01 
7.267353e-01 
7.006521e-01 
6.749285e-01 
6.495963e-01 
6.246909e-01 
6.002516e-01 
5.763224e-01 
5.529518e-01 
5.301939e-01 
5.081091e-01 
4.867649e-01 
4.662371e-01 
4.466105e-01 
4.279783e-01 
4.104423e-01 
3.941129e-01 
3.791092e-01 
3.655565e-01 
3.535821e-01 
3.433136e-01 
3.348774e-01 
3.283880e-01 
3.239361e-01 
3.215846e-01 
3.222124e-01 
3.255232e-01 
3.310602e-01 
3.386589e-01 
3.481948e-01 
3.595350e-01 
3.725389e-01 
3.870653e-01 
4.029787e-01 
4.201524e-01 
4.384690e-01 
4.578213e-01 
4.781125e-01 
4.992551e-01 
5.211710e-01 
5.437896e-01 
5.670478e-01 
5.908891e-01 
6.152628e-01 
6.401235e-01 
6.654303e-01 
6.911460e-01 
7.172372e-01 
7.436735e-01 
7.704270e-01 
1.134164e+00 
1.104780e+00 
1.075482e+00 
1.046295e+00 
1.017227e+00 
9.882882e-01 
9.594883e-01 
9.308381e-01 
9.023495e-01 
8.740358e-01 
8.459112e-01 
8.179915e-01 
7.902937e-01 
7.628365e-01 
7.356404e-01 
7.087280e-01 
6.821245e-01 
6.558579e-01 
6.299595e-01 
6.044643e-01 
5.794113e-01 
5.548441e-01 
5.308114e-01 
5.073677e-01 
4.845745e-01 
4.625010e-01 
4.412262e-01 
4.208391e-01 
4.014387e-01 
3.831347e-01 
3.660473e-01 
3.503075e-01 
3.360551e-01 
3.234351e-01 
3.125953e-01 
3.036838e-01 
2.968358e-01 
2.921582e-01 
2.897225e-01 
2.904418e-01 
2.939609e-01 
2.998189e-01 
3.078591e-01 
3.179431e-01 
3.299151e-01 
3.436113e-01 
3.588708e-01 
3.755413e-01 
3.934829e-01 
4.125682e-01 
4.326822e-01 
4.537221e-01 
4.755964e-01 
4.982231e-01 
5.215294e-01 
5.454507e-01 
5.699297e-01 
5.949156e-01 
6.203633e-01 
6.462322e-01 
6.724859e-01 
6.990918e-01 
7.260203e-01 
7.532447e-01 
1.122392e+00 
1.092746e+00 
1.063171e+00 
1.033695e+00 
1.004326e+00 
9.750737e-01 
9.459465e-01 
9.169546e-01 
8.881091e-01 
8.594221e-01 
8.309069e-01 
8.025782e-01 
7.744519e-01 
7.465458e-01 
7.188791e-01 
6.914738e-01 
6.643538e-01 
6.375464e-01 
6.110821e-01 
5.849950e-01 
5.593232e-01 
5.341096e-01 
5.094024e-01 
4.852559e-01 
4.617319e-01 
4.389014e-01 
4.168455e-01 
3.956573e-01 
3.754416e-01 
3.563156e-01 
3.384100e-01 
3.218691e-01 
3.068493e-01 
2.935158e-01 
2.820405e-01 
2.725972e-01 
2.653469e-01 
2.604154e-01 
2.578833e-01 
2.586797e-01 
2.624189e-01 
2.686332e-01 
2.771687e-01 
2.878664e-01 
3.005412e-01 
3.150013e-01 
3.310620e-01 
3.485527e-01 
3.673191e-01 
3.872235e-01 
4.081431e-01 
4.299694e-01 
4.526066e-01 
4.759701e-01 
4.999852e-01 
5.245866e-01 
5.497168e-01 
5.753255e-01 
6.013678e-01 
6.278043e-01 
6.545993e-01 
6.817214e-01 
7.091419e-01 
7.368355e-01 
1.111390e+00 
1.081479e+00 
1.051634e+00 
1.021878e+00 
9.922172e-01 
9.626603e-01 
9.332151e-01 
9.038907e-01 
8.746970e-01 
8.456453e-01 
8.167475e-01 
7.880172e-01 
7.594692e-01 
7.311199e-01 
7.029876e-01 
6.750928e-01 
6.474587e-01 
6.201111e-01 
5.930794e-01 
5.663963e-01 
5.400984e-01 
5.142271e-01 
4.888293e-01 
4.639584e-01 
4.396765e-01 
4.160551e-01 
3.931774e-01 
3.711399e-01 
3.500528e-01 
3.300410e-01 
3.112461e-01 
2.938267e-01 
2.779581e-01 
2.638289e-01 
2.516388e-01 
2.415938e-01 
2.338866e-01 
2.286658e-01 
2.260186e-01 
2.269132e-01 
2.309041e-01 
2.375209e-01 
2.466197e-01 
2.580121e-01 
2.714743e-01 
2.867801e-01 
3.037179e-01 
3.220968e-01 
3.417478e-01 
3.625225e-01 
3.842905e-01 
4.069383e-01 
4.303666e-01 
4.544890e-01 
4.792301e-01 
5.045245e-01 
5.303153e-01 
5.565525e-01 
5.831926e-01 
6.101969e-01 
6.375315e-01 
6.651662e-01 
6.930737e-01 
7.212301e-01 
1.101134e+00 
1.070975e+00 
1.040873e+00 
1.010848e+00 
9.809067e-01 
9.510564e-01 
9.213041e-01 
8.916580e-01 
8.621269e-01 
8.327208e-01 
8.034507e-01 
7.743287e-01 
7.453684e-01 
7.165850e-01 
6.879954e-01 
6.596189e-01 
6.314773e-01 
6.035949e-01 
5.759993e-01 
5.487212e-01 
5.217951e-01 
4.952600e-01 
4.691610e-01 
4.435502e-01 
4.184886e-01 
3.940481e-01 
3.703128e-01 
3.473816e-01 
3.253693e-01 
3.044079e-01 
2.846494e-01 
2.662676e-01 
2.494582e-01 
2.344371e-01 
2.214380e-01 
2.107062e-01 
2.024755e-01 
1.969234e-01 
1.941429e-01 
1.951396e-01 
1.994087e-01 
2.064791e-01 
2.162221e-01 
2.284041e-01 
2.427506e-01 
2.589938e-01 
2.768918e-01 
2.962319e-01 
3.168300e-01 
3.385271e-01 
3.611858e-01 
3.846885e-01 
4.089336e-01 
4.338340e-01 
4.593146e-01 
4.853105e-01 
5.117659e-01 
5.386324e-01 
5.658677e-01 
5.934352e-01 
6.213025e-01 
6.494412e-01 
6.778259e-01 
7.064344e-01 
1.091623e+00 
1.061228e+00 
1.030881e+00 
1.000601e+00 
9.703934e-01 
9.402640e-01 
9.102192e-01 
8.802659e-01 
8.504120e-01 
8.206663e-01 
7.910384e-01 
7.615393e-01 
7.321811e-01 
7.029777e-01 
6.739447e-01 
6.450998e-01 
6.164631e-01 
5.880570e-01 
5.599068e-01 
5.320404e-01 
5.044895e-01 
4.772905e-01 
4.504856e-01 
4.241247e-01 
3.982673e-01 
3.729841e-01 
3.483592e-01 
3.244923e-01 
3.015011e-01 
2.795238e-01 
2.587221e-01 
2.392852e-01 
2.214311e-01 
2.054066e-01 
1.914863e-01 
1.799653e-01 
1.711317e-01 
1.652014e-01 
1.622745e-01 
1.633731e-01 
1.679487e-01 
1.755350e-01 
1.860234e-01 
1.991110e-01 
2.144561e-01 
2.317419e-01 
2.506930e-01 
2.710740e-01 
2.926854e-01 
3.153583e-01 
3.389500e-01 
3.633397e-01 
3.884253e-01 
4.141200e-01 
4.403500e-01 
4.670522e-01 
4.941729e-01 
5.216657e-01 
5.494907e-01 
5.776134e-01 
6.060038e-01 
6.346354e-01 
6.634852e-01 
6.925327e-01 
1.082880e+00 
1.052264e+00 
1.021688e+00 
9.911678e-01 
9.607090e-01 
9.303163e-01 
8.999950e-01 
8.697510e-01 
8.395912e-01 
8.095229e-01 
7.795546e-01 
7.496959e-01 
7.199577e-01 
6.903522e-01 
6.608935e-01 
6.315978e-01 
6.024829e-01 
5.735690e-01 
5.448783e-01 
5.164356e-01 
4.882693e-01 
4.604121e-01 
4.329028e-01 
4.057884e-01 
3.791256e-01 
3.529826e-01 
3.274416e-01 
3.026012e-01 
2.785798e-01 
2.555196e-01 
2.335905e-01 
2.129962e-01 
1.939785e-01 
1.768192e-01 
1.618418e-01 
1.494043e-01 
1.398696e-01 
1.335064e-01 
1.304250e-01 
1.316186e-01 
1.365327e-01 
1.447116e-01 
1.560749e-01 
1.702103e-01 
1.866889e-01 
2.051374e-01 
2.252439e-01 
2.467494e-01 
2.694400e-01 
2.931393e-01 
3.177011e-01 
3.430040e-01 
3.689469e-01 
3.954452e-01 
4.224278e-01 
4.498347e-01 
4.776151e-01 
5.057257e-01 
5.341296e-01 
5.627950e-01 
5.916945e-01 
6.208043e-01 
6.501035e-01 
6.795740e-01 
1.074930e+00 
1.044108e+00 
1.013318e+00 
9.825747e-01 
9.518818e-01 
9.212435e-01 
8.906640e-01 
8.601482e-01 
8.297017e-01 
7.993308e-01 
7.690427e-01 
7.388454e-01 
7.087486e-01 
6.787631e-01 
6.489011e-01 
6.191767e-01 
5.896056e-01 
5.602049e-01 
5.309936e-01 
5.019930e-01 
4.732272e-01 
4.447251e-01 
4.165214e-01 
3.886589e-01 
3.611903e-01 
3.341795e-01 
3.077046e-01 
2.818606e-01 
2.567634e-01 
2.325556e-01 
2.094125e-01 
1.875503e-01 
1.672339e-01 
1.487840e-01 
1.325826e-01 
1.190679e-01 
1.087072e-01 
1.018438e-01 
9.860133e-02 
9.987748e-02 
1.051689e-01 
1.140384e-01 
1.264468e-01 
1.418065e-01 
1.595780e-01 
1.793246e-01 
2.006955e-01 
2.234099e-01 
2.472427e-01 
2.720131e-01 
2.975747e-01 
3.238084e-01 
3.506168e-01 
3.779192e-01 
4.056491e-01 
4.337508e-01 
4.621776e-01 
4.908904e-01 
5.198556e-01 
5.490450e-01 
5.784341e-01 
6.080020e-01 
6.377304e-01 
6.676036e-01 
1.067797e+00 
1.036785e+00 
1.005798e+00 
9.748491e-01 
9.439407e-01 
9.130761e-01 
8.822586e-01 
8.514920e-01 
8.207807e-01 
7.901299e-01 
7.595455e-01 
7.290343e-01 
6.986043e-01 
6.682647e-01 
6.380261e-01 