# vtk DataFile Version 2.0 
Quadtree Mesh 
ASCII 
DATASET UNSTRUCTURED_GRID 
POINTS 4096 double 
-1.000000e+00 -1.000000e+00 0.000000e+00
-9.682540e-01 -1.000000e+00 0.000000e+00
-9.365079e-01 -1.000000e+00 0.000000e+00
-9.047619e-01 -1.000000e+00 0.000000e+00
-8.730159e-01 -1.000000e+00 0.000000e+00
-8.412698e-01 -1.000000e+00 0.000000e+00
-8.095238e-01 -1.000000e+00 0.000000e+00
-7.777778e-01 -1.000000e+00 0.000000e+00
-7.460317e-01 -1.000000e+00 0.000000e+00
-7.142857e-01 -1.000000e+00 0.000000e+00
-6.825397e-01 -1.000000e+00 0.000000e+00
-6.507937e-01 -1.000000e+00 0.000000e+00
-6.190476e-01 -1.000000e+00 0.000000e+00
-5.873016e-01 -1.000000e+00 0.000000e+00
-5.555556e-01 -1.000000e+00 0.000000e+00
-5.238095e-01 -1.000000e+00 0.000000e+00
-4.920635e-01 -1.000000e+00 0.000000e+00
-4.603175e-01 -1.000000e+00 0.000000e+00
-4.285714e-01 -1.000000e+00 0.000000e+00
-3.968254e-01 -1.000000e+00 0.000000e+00
-3.650794e-01 -1.000000e+00 0.000000e+00
-3.333333e-01 -1.000000e+00 0.000000e+00
-3.015873e-01 -1.000000e+00 0.000000e+00
-2.698413e-01 -1.000000e+00 0.000000e+00
-2.380952e-01 -1.000000e+00 0.000000e+00
-2.063492e-01 -1.000000e+00 0.000000e+00
-1.746032e-01 -1.000000e+00 0.000000e+00
-1.428571e-01 -1.000000e+00 0.000000e+00
-1.111111e-01 -1.000000e+00 0.000000e+00
-7.936508e-02 -1.000000e+00 0.000000e+00
-4.761905e-02 -1.000000e+00 0.000000e+00
-1.587302e-02 -1.000000e+00 0.000000e+00
1.587302e-02 -1.000000e+00 0.000000e+00
4.761905e-02 -1.000000e+00 0.000000e+00
7.936508e-02 -1.000000e+00 0.000000e+00
1.111111e-01 -1.000000e+00 0.000000e+00
1.428571e-01 -1.000000e+00 0.000000e+00
1.746032e-01 -1.000000e+00 0.000000e+00
2.063492e-01 -1.000000e+00 0.000000e+00
2.380952e-01 -1.000000e+00 0.000000e+00
2.698413e-01 -1.000000e+00 0.000000e+00
3.015873e-01 -1.000000e+00 0.000000e+00
3.333333e-01 -1.000000e+00 0.000000e+00
3.650794e-01 -1.000000e+00 0.000000e+00
3.968254e-01 -1.000000e+00 0.000000e+00
4.285714e-01 -1.000000e+00 0.000000e+00
4.603175e-01 -1.000000e+00 0.000000e+00
4.920635e-01 -1.000000e+00 0.000000e+00
5.238095e-01 -1.000000e+00 0.000000e+00
5.555556e-01 -1.000000e+00 0.000000e+00
5.873016e-01 -1.000000e+00 0.000000e+00
6.190476e-01 -1.000000e+00 0.000000e+00
6.507937e-01 -1.000000e+00 0.000000e+00
6.825397e-01 -1.000000e+00 0.000000e+00
7.142857e-01 -1.000000e+00 0.000000e+00
7.460317e-01 -1.000000e+00 0.000000e+00
7.777778e-01 -1.000000e+00 0.000000e+00
8.095238e-01 -1.000000e+00 0.000000e+00
8.412698e-01 -1.000000e+00 0.000000e+00
8.730159e-01 -1.000000e+00 0.000000e+00
9.047619e-01 -1.000000e+00 0.000000e+00
9.365079e-01 -1.000000e+00 0.000000e+00
9.682540e-01 -1.000000e+00 0.000000e+00
1.000000e+00 -1.000000e+00 0.000000e+00
-1.000000e+00 -9.682540e-01 0.000000e+00
-9.682540e-01 -9.682540e-01 0.000000e+00
-9.365079e-01 -9.682540e-01 0.000000e+00
-9.047619e-01 -9.682540e-01 0.000000e+00
-8.730159e-01 -9.682540e-01 0.000000e+00
-8.412698e-01 -9.682540e-01 0.000000e+00
-8.095238e-01 -9.682540e-01 0.000000e+00
-7.777778e-01 -9.682540e-01 0.000000e+00
-7.460317e-01 -9.682540e-01 0.000000e+00
-7.142857e-01 -9.682540e-01 0.000000e+00
-6.825397e-01 -9.682540e-01 0.000000e+00
-6.507937e-01 -9.682540e-01 0.000000e+00
-6.190476e-01 -9.682540e-01 0.000000e+00
-5.873016e-01 -9.682540e-01 0.000000e+00
-5.555556e-01 -9.682540e-01 0.000000e+00
-5.238095e-01 -9.682540e-01 0.000000e+00
-4.920635e-01 -9.682540e-01 0.000000e+00
-4.603175e-01 -9.682540e-01 0.000000e+00
-4.285714e-01 -9.682540e-01 0.000000e+00
-3.968254e-01 -9.682540e-01 0.000000e+00
-3.650794e-01 -9.682540e-01 0.000000e+00
-3.333333e-01 -9.682540e-01 0.000000e+00
-3.015873e-01 -9.682540e-01 0.000000e+00
-2.698413e-01 -9.682540e-01 0.000000e+00
-2.380952e-01 -9.682540e-01 0.000000e+00
-2.063492e-01 -9.682540e-01 0.000000e+00
-1.746032e-01 -9.682540e-01 0.000000e+00
-1.428571e-01 -9.682540e-01 0.000000e+00
-1.111111e-01 -9.682540e-01 0.000000e+00
-7.936508e-02 -9.682540e-01 0.000000e+00
-4.761905e-02 -9.682540e-01 0.000000e+00
-1.587302e-02 -9.682540e-01 0.000000e+00
1.587302e-02 -9.682540e-01 0.000000e+00
4.761905e-02 -9.682540e-01 0.000000e+00
7.936508e-02 -9.682540e-01 0.000000e+00
1.111111e-01 -9.682540e-01 0.000000e+00
1.428571e-01 -9.682540e-01 0.000000e+00
1.746032e-01 -9.682540e-01 0.000000e+00
2.063492e-01 -9.682540e-01 0.000000e+00
2.380952e-01 -9.682540e-01 0.000000e+00
2.698413e-01 -9.682540e-01 0.000000e+00
3.015873e-01 -9.682540e-01 0.000000e+00
3.333333e-01 -9.682540e-01 0.000000e+00
3.650794e-01 -9.682540e-01 0.000000e+00
3.968254e-01 -9.682540e-01 0.000000e+00
4.285714e-01 -9.682540e-01 0.000000e+00
4.603175e-01 -9.682540e-01 0.000000e+00
4.920635e-01 -9.682540e-01 0.000000e+00
5.238095e-01 -9.682540e-01 0.000000e+00
5.555556e-01 -9.682540e-01 0.000000e+00
5.873016e-01 -9.682540e-01 0.000000e+00
6.190476e-01 -9.682540e-01 0.000000e+00
6.507937e-01 -9.682540e-01 0.000000e+00
6.825397e-01 -9.682540e-01 0.000000e+00
7.142857e-01 -9.682540e-01 0.000000e+00
7.460317e-01 -9.682540e-01 0.000000e+00
7.777778e-01 -9.682540e-01 0.000000e+00
8.095238e-01 -9.682540e-01 0.000000e+00
8.412698e-01 -9.682540e-01 0.000000e+00
8.730159e-01 -9.682540e-01 0.000000e+00
9.047619e-01 -9.682540e-01 0.000000e+00
9.365079e-01 -9.682540e-01 0.000000e+00
9.682540e-01 -9.682540e-01 0.000000e+00
1.000000e+00 -9.682540e-01 0.000000e+00
-1.000000e+00 -9.365079e-01 0.000000e+00
-9.682540e-01 -9.365079e-01 0.000000e+00
-9.365079e-01 -9.365079e-01 0.000000e+00
-9.047619e-01 -9.365079e-01 0.000000e+00
-8.730159e-01 -9.365079e-01 0.000000e+00
-8.412698e-01 -9.365079e-01 0.000000e+00
-8.095238e-01 -9.365079e-01 0.000000e+00
-7.777778e-01 -9.365079e-01 0.000000e+00
-7.460317e-01 -9.365079e-01 0.000000e+00
-7.142857e-01 -9.365079e-01 0.000000e+00
-6.825397e-01 -9.365079e-01 0.000000e+00
-6.507937e-01 -9.365079e-01 0.000000e+00
-6.190476e-01 -9.365079e-01 0.000000e+00
-5.873016e-01 -9.365079e-01 0.000000e+00
-5.555556e-01 -9.365079e-01 0.000000e+00
-5.238095e-01 -9.365079e-01 0.000000e+00
-4.920635e-01 -9.365079e-01 0.000000e+00
-4.603175e-01 -9.365079e-01 0.000000e+00
-4.285714e-01 -9.365079e-01 0.000000e+00
-3.968254e-01 -9.365079e-01 0.000000e+00
-3.650794e-01 -9.365079e-01 0.000000e+00
-3.333333e-01 -9.365079e-01 0.000000e+00
-3.015873e-01 -9.365079e-01 0.000000e+00
-2.698413e-01 -9.365079e-01 0.000000e+00
-2.380952e-01 -9.365079e-01 0.000000e+00
-2.063492e-01 -9.365079e-01 0.000000e+00
-1.746032e-01 -9.365079e-01 0.000000e+00
-1.428571e-01 -9.365079e-01 0.000000e+00
-1.111111e-01 -9.365079e-01 0.000000e+00
-7.936508e-02 -9.365079e-01 0.000000e+00
-4.761905e-02 -9.365079e-01 0.000000e+00
-1.587302e-02 -9.365079e-01 0.000000e+00
1.587302e-02 -9.365079e-01 0.000000e+00
4.761905e-02 -9.365079e-01 0.000000e+00
7.936508e-02 -9.365079e-01 0.000000e+00
1.111111e-01 -9.365079e-01 0.000000e+00
1.428571e-01 -9.365079e-01 0.000000e+00
1.746032e-01 -9.365079e-01 0.000000e+00
2.063492e-01 -9.365079e-01 0.000000e+00
2.380952e-01 -9.365079e-01 0.000000e+00
2.698413e-01 -9.365079e-01 0.000000e+00
3.015873e-01 -9.365079e-01 0.000000e+00
3.333333e-01 -9.365079e-01 0.000000e+00
3.650794e-01 -9.365079e-01 0.000000e+00
3.968254e-01 -9.365079e-01 0.000000e+00
4.285714e-01 -9.365079e-01 0.000000e+00
4.603175e-01 -9.365079e-01 0.000000e+00
4.920635e-01 -9.365079e-01 0.000000e+00
5.238095e-01 -9.365079e-01 0.000000e+00
5.555556e-01 -9.365079e-01 0.000000e+00
5.873016e-01 -9.365079e-01 0.000000e+00
6.190476e-01 -9.365079e-01 0.000000e+00
6.507937e-01 -9.365079e-01 0.000000e+00
6.825397e-01 -9.365079e-01 0.000000e+00
7.142857e-01 -9.365079e-01 0.000000e+00
7.460317e-01 -9.365079e-01 0.000000e+00
7.777778e-01 -9.365079e-01 0.000000e+00
8.095238e-01 -9.365079e-01 0.000000e+00
8.412698e-01 -9.365079e-01 0.000000e+00
8.730159e-01 -9.365079e-01 0.000000e+00
9.047619e-01 -9.365079e-01 0.000000e+00
9.365079e-01 -9.365079e-01 0.000000e+00
9.682540e-01 -9.365079e-01 0.000000e+00
1.000000e+00 -9.365079e-01 0.000000e+00
-1.000000e+00 -9.047619e-01 0.000000e+00
-9.682540e-01 -9.047619e-01 0.000000e+00
-9.365079e-01 -9.047619e-01 0.000000e+00
-9.047619e-01 -9.047619e-01 0.000000e+00
-8.730159e-01 -9.047619e-01 0.000000e+00
-8.412698e-01 -9.047619e-01 0.000000e+00
-8.095238e-01 -9.047619e-01 0.000000e+00
-7.777778e-01 -9.047619e-01 0.000000e+00
-7.460317e-01 -9.047619e-01 0.000000e+00
-7.142857e-01 -9.047619e-01 0.000000e+00
-6.825397e-01 -9.047619e-01 0.000000e+00
-6.507937e-01 -9.047619e-01 0.000000e+00
-6.190476e-01 -9.047619e-01 0.000000e+00
-5.873016e-01 -9.047619e-01 0.000000e+00
-5.555556e-01 -9.047619e-01 0.000000e+00
-5.238095e-01 -9.047619e-01 0.000000e+00
-4.920635e-01 -9.047619e-01 0.000000e+00
-4.603175e-01 -9.047619e-01 0.000000e+00
-4.285714e-01 -9.047619e-01 0.000000e+00
-3.968254e-01 -9.047619e-01 0.000000e+00
-3.650794e-01 -9.047619e-01 0.000000e+00
-3.333333e-01 -9.047619e-01 0.000000e+00
-3.015873e-01 -9.047619e-01 0.000000e+00
-2.698413e-01 -9.047619e-01 0.000000e+00
-2.380952e-01 -9.047619e-01 0.000000e+00
-2.063492e-01 -9.047619e-01 0.000000e+00
-1.746032e-01 -9.047619e-01 0.000000e+00
-1.428571e-01 -9.047619e-01 0.000000e+00
-1.111111e-01 -9.047619e-01 0.000000e+00
-7.936508e-02 -9.047619e-01 0.000000e+00
-4.761905e-02 -9.047619e-01 0.000000e+00
-1.587302e-02 -9.047619e-01 0.000000e+00
1.587302e-02 -9.047619e-01 0.000000e+00
4.761905e-02 -9.047619e-01 0.000000e+00
7.936508e-02 -9.047619e-01 0.000000e+00
1.111111e-01 -9.047619e-01 0.000000e+00
1.428571e-01 -9.047619e-01 0.000000e+00
1.746032e-01 -9.047619e-01 0.000000e+00
2.063492e-01 -9.047619e-01 0.000000e+00
2.380952e-01 -9.047619e-01 0.000000e+00
2.698413e-01 -9.047619e-01 0.000000e+00
3.015873e-01 -9.047619e-01 0.000000e+00
3.333333e-01 -9.047619e-01 0.000000e+00
3.650794e-01 -9.047619e-01 0.000000e+00
3.968254e-01 -9.047619e-01 0.000000e+00
4.285714e-01 -9.047619e-01 0.000000e+00
4.603175e-01 -9.047619e-01 0.000000e+00
4.920635e-01 -9.047619e-01 0.000000e+00
5.238095e-01 -9.047619e-01 0.000000e+00
5.555556e-01 -9.047619e-01 0.000000e+00
5.873016e-01 -9.047619e-01 0.000000e+00
6.190476e-01 -9.047619e-01 0.000000e+00
[...]
POINT_DATA 4096 
SCALARS concentration double 1 
LOOKUP_TABLE default 
1.421442e+00 
1.397098e+00 
1.372949e+00 
1.349052e+00 
1.325428e+00 
1.302090e+00 
1.279052e+00 
1.256330e+00 
1.233939e+00 
1.211893e+00 
1.190210e+00 
1.168907e+00 
1.148003e+00 
1.127515e+00 
1.107463e+00 
1.087869e+00 
1.068754e+00 
1.050139e+00 
1.032048e+00 
1.014506e+00 
9.975371e-01 
9.811683e-01 
9.654266e-01 
9.503397e-01 
9.359365e-01 
9.222460e-01 
9.092979e-01 
8.971225e-01 
8.857499e-01 
8.752106e-01 
8.655349e-01 
8.567530e-01 
8.488946e-01 
8.419853e-01 
8.360464e-01 
8.310991e-01 
8.271652e-01 
8.242673e-01 
8.224360e-01 
8.217771e-01 
8.226789e-01 
8.250546e-01 
8.287413e-01 
8.336086e-01 
8.395681e-01 
8.465604e-01 
8.545413e-01 
8.634738e-01 
8.733238e-01 
8.840581e-01 
8.956439e-01 
9.080488e-01 
9.212405e-01 
9.351871e-01 
9.498572e-01 
9.652201e-01 
9.812458e-01 
9.979052e-01 
1.015169e+00 
1.033011e+00 
1.051403e+00 
1.070321e+00 
1.089740e+00 
1.109638e+00 
1.401191e+00 
1.376540e+00 
1.352080e+00 
1.327864e+00 
1.303916e+00 
1.280248e+00 
1.256875e+00 
1.233812e+00 
1.211074e+00 
1.188677e+00 
1.166638e+00 
1.144975e+00 
1.123705e+00 
1.102847e+00 
1.082423e+00 
1.062453e+00 
1.042959e+00 
1.023964e+00 
1.005492e+00 
9.875690e-01 
9.702212e-01 
9.534759e-01 
9.373618e-01 
9.219081e-01 
9.071452e-01 
8.931041e-01 
8.798161e-01 
8.673135e-01 
8.556287e-01 
8.447941e-01 
8.348426e-01 
8.258068e-01 
8.177192e-01 
8.106077e-01 
8.044949e-01 
7.994043e-01 
7.953594e-01 
7.923847e-01 
7.905135e-01 
7.898688e-01 
7.908600e-01 
7.933661e-01 
7.972084e-01 
8.022527e-01 
8.084112e-01 
8.156253e-01 
8.238508e-01 
8.330497e-01 
8.431860e-01 
8.542248e-01 
8.661311e-01 
8.788705e-01 
8.924084e-01 
9.067111e-01 
9.217453e-01 
9.374786e-01 
9.538795e-01 
9.709175e-01 
9.885620e-01 
1.006784e+00 
1.025557e+00 
1.044855e+00 
1.064652e+00 
1.084926e+00 
1.381328e+00 
1.356365e+00 
1.331589e+00 
1.307052e+00 
1.282777e+00 
1.258776e+00 
1.235064e+00 
1.211655e+00 
1.188566e+00 
1.165812e+00 
1.143410e+00 
1.121378e+00 
1.099735e+00 
1.078500e+00 
1.057693e+00 
1.037336e+00 
1.017453e+00 
9.980658e-01 
9.792008e-01 
9.608841e-01 
9.431433e-01 
9.260071e-01 
9.095055e-01 
8.936696e-01 
8.785311e-01 
8.641229e-01 
8.504785e-01 
8.376321e-01 
8.256185e-01 
8.144725e-01 
8.042298e-01 
7.949256e-01 
7.865949e-01 
7.792677e-01 
7.729691e-01 
7.677248e-01 
7.635608e-01 
7.605032e-01 
7.585885e-01 
7.579592e-01 
7.590448e-01 
7.616859e-01 
7.656890e-01 
7.709170e-01 
7.772833e-01 
7.847299e-01 
7.932120e-01 
8.026903e-01 
8.131268e-01 
8.244843e-01 
8.367256e-01 
8.498136e-01 
8.637119e-01 
8.783844e-01 
8.937959e-01 
9.099123e-01 
9.267003e-01 
9.441280e-01 
9.621635e-01 
9.807769e-01 
9.999400e-01 
1.019626e+00 
1.039809e+00 
1.060464e+00 
1.361863e+00 
1.336586e+00 
1.311492e+00 
1.286633e+00 
1.262028e+00 
1.237690e+00 
1.213635e+00 
1.189877e+00 
1.166432e+00 
1.143315e+00 
1.120544e+00 
1.098137e+00 
1.076112e+00 
1.054490e+00 
1.033292e+00 
1.012538e+00 
9.922539e-01 
9.724631e-01 
9.531920e-01 
9.344681e-01 
9.163200e-01 
8.987780e-01 
8.818733e-01 
8.656386e-01 
8.501076e-01 
8.353150e-01 
8.212964e-01 
8.080884e-01 
7.957283e-01 
7.842538e-01 
7.737035e-01 
7.641153e-01 
7.555267e-01 
7.479703e-01 
7.414742e-01 
7.360666e-01 
7.317758e-01 
7.286302e-01 
7.266692e-01 
7.260579e-01 
7.272435e-01 
7.300249e-01 
7.341951e-01 
7.396154e-01 
7.462003e-01 
7.538922e-01 
7.626454e-01 
7.724186e-01 
7.831715e-01 
7.948644e-01 
8.074573e-01 
8.209108e-01 
8.351858e-01 
8.502442e-01 
8.660486e-01 
8.825630e-01 
8.997523e-01 
9.175831e-01 
9.360223e-01 
9.550388e-01 
9.746030e-01 
9.946873e-01 
1.015265e+00 
1.036311e+00 
1.342813e+00 
1.317220e+00 
1.291808e+00 
1.266624e+00 
1.241686e+00 
1.217009e+00 
1.192608e+00 
1.168496e+00 
1.144689e+00 
1.121205e+00 
1.098058e+00 
1.075269e+00 
1.052856e+00 
1.030838e+00 
1.009238e+00 
9.880774e-01 
9.673812e-01 
9.471745e-01 
9.274843e-01 
9.083393e-01 
8.897693e-01 
8.718058e-01 
8.544816e-01 
8.378310e-01 
8.218895e-01 
8.066940e-01 
7.922824e-01 
7.786938e-01 
7.659683e-01 
7.541471e-01 
7.432713e-01 
7.333819e-01 
7.245193e-01 
7.167193e-01 
7.100128e-01 
7.044313e-01 
7.000054e-01 
6.967660e-01 
6.947558e-01 
6.941654e-01 
6.954569e-01 
6.983845e-01 
7.027290e-01 
7.083513e-01 
7.151672e-01 
7.231189e-01 
7.321593e-01 
7.422446e-01 
7.533318e-01 
7.653781e-01 
7.783409e-01 
7.921779e-01 
8.068474e-01 
8.223088e-01 
8.385227e-01 
8.554509e-01 
8.730566e-01 
8.913048e-01 
9.101611e-01 
9.295930e-01 
9.495701e-01 
9.700635e-01 
9.910461e-01 
1.012492e+00 
1.324196e+00 
1.298287e+00 
1.272554e+00 
1.247042e+00 
1.221770e+00 
1.196751e+00 
1.172000e+00 
1.147531e+00 
1.123359e+00 
1.099501e+00 
1.075974e+00 
1.052796e+00 
1.029986e+00 
1.007564e+00 
9.855527e-01 
9.639750e-01 
9.428556e-01 
9.222208e-01 
9.020985e-01 
8.825183e-01 
8.635112e-01 
8.451101e-01 
8.273493e-01 
8.102647e-01 
7.938939e-01 
7.782759e-01 
7.634513e-01 
7.494619e-01 
7.363512e-01 
7.241632e-01 
7.129423e-01 
7.027329e-01 
6.935788e-01 
6.855192e-01 
6.785885e-01 
6.728214e-01 
6.682513e-01 
6.649117e-01 
6.628490e-01 
6.622826e-01 
6.636857e-01 
6.667652e-01 
6.712922e-01 
6.771278e-01 
6.841886e-01 
6.924165e-01 
7.017618e-01 
7.121780e-01 
7.236189e-01 
7.360383e-01 
7.493905e-01 
7.636302e-01 
7.787130e-01 
7.945956e-01 
8.112364e-01 
8.285949e-01 
8.466327e-01 
8.653130e-01 
8.846002e-01 
9.044604e-01 
9.248621e-01 
9.457755e-01 
9.671728e-01 
9.890274e-01 
1.306032e+00 
1.279805e+00 
1.253750e+00 
1.227910e+00 
1.202301e+00 
1.176938e+00 
1.151834e+00 
1.127004e+00 
1.102463e+00 
1.078227e+00 
1.054313e+00 
1.030739e+00 
1.007525e+00 
9.846907e-01 
9.622593e-01 
9.402540e-01 
9.187003e-01 
8.976252e-01 
8.770574e-01 
8.570275e-01 
8.375678e-01 
8.187123e-01 
8.004968e-01 
7.829593e-01 
7.661392e-01 
7.500781e-01 
7.348192e-01 
7.204075e-01 
7.068899e-01 
6.943134e-01 
6.827262e-01 
6.721764e-01 
6.627116e-01 
6.543749e-01 
6.472045e-01 
6.412386e-01 
6.365140e-01 
6.330670e-01 
6.309480e-01 
6.304088e-01 
6.319295e-01 
6.351672e-01 
6.398857e-01 
6.459472e-01 
6.532689e-01 
6.617909e-01 
6.714608e-01 
6.822285e-01 
6.940441e-01 
7.068578e-01 
7.206203e-01 
7.352832e-01 
7.507991e-01 
7.671220e-01 
7.842077e-01 
8.020138e-01 
8.204999e-01 
8.396274e-01 
8.593595e-01 
8.796609e-01 
9.004991e-01 
9.218434e-01 
9.436651e-01 
9.659372e-01 
1.288336e+00 
1.261788e+00 
1.235410e+00 
1.209239e+00 
1.183293e+00 
1.157583e+00 
1.132124e+00 
1.106929e+00 
1.082015e+00 
1.057396e+00 
1.033089e+00 
1.009114e+00 
9.854884e-01 
9.622342e-01 
9.393737e-01 
9.169310e-01 
8.949320e-01 
8.734045e-01 
8.523780e-01 
8.318839e-01 
8.119557e-01 
7.926287e-01 
7.739404e-01 
7.559304e-01 
7.386404e-01 
7.221147e-01 
7.063995e-01 
6.915432e-01 
6.775957e-01 
6.646080e-01 
6.526320e-01 
6.417201e-01 
6.319239e-01 
6.232907e-01 
6.158633e-01 
6.096842e-01 
6.047937e-01 
6.012314e-01 
5.990518e-01 
5.985435e-01 
6.001886e-01 
6.035917e-01 
6.085123e-01 
6.148142e-01 
6.224145e-01 
6.312508e-01 
6.412671e-01 
6.524088e-01 
6.646220e-01 
6.778527e-01 
6.920480e-01 
7.071559e-01 
7.231257e-01 
7.399088e-01 
7.574584e-01 
7.757297e-01 
7.946805e-01 
8.142705e-01 
8.344615e-01 
8.552171e-01 
8.765035e-01 
8.982892e-01 
9.205448e-01 
9.432429e-01 
1.271075e+00 
1.244218e+00 
1.217520e+00 
1.191022e+00 
1.164738e+00 
1.138681e+00 
1.112866e+00 
1.087305e+00 
1.062015e+00 
1.037011e+00 
1.012309e+00 
9.879275e-01 
9.638867e-01 
9.402071e-01 
9.169115e-01 
8.940242e-01 
8.715718e-01 
8.495825e-01 
8.280866e-01 
8.071164e-01 
7.867064e-01 
7.668931e-01 
7.477157e-01 
7.292158e-01 
7.114371e-01 
6.944267e-01 
6.782341e-01 
6.629109e-01 
6.485105e-01 
6.350879e-01 
6.226996e-01 
6.114026e-01 
6.012530e-01 
5.923030e-01 
5.846007e-01 
5.781930e-01 
5.731244e-01 
5.694381e-01 
5.671925e-01 
5.667108e-01 
5.684687e-01 
5.720391e-01 
5.771715e-01 
5.837286e-01 
5.916260e-01 
6.007981e-01 
6.111841e-01 
6.227247e-01 
6.353610e-01 
6.490347e-01 
6.636883e-01 
6.792661e-01 
6.957141e-01 
7.129805e-01 
7.310157e-01 
7.497729e-01 
7.692076e-01 
7.892779e-01 
8.099440e-01 
8.311685e-01 
8.529165e-01 
8.751557e-01 
8.978561e-01 
9.209899e-01 
1.254363e+00 
1.227191e+00 
1.200173e+00 
1.173346e+00 
1.146724e+00 
1.120320e+00 
1.094146e+00 
1.068218e+00 
1.042548e+00 
1.017153e+00 
9.920494e-01 
9.672557e-01 
9.427912e-01 
9.186770e-01 
8.949359e-01 
8.715928e-01 
8.486742e-01 
8.262090e-01 
8.042280e-01 
7.827642e-01 
7.618532e-01 
7.415329e-01 
7.218441e-01 
7.028300e-01 
6.845373e-01 
6.670157e-01 
6.503178e-01 
6.344988e-01 
6.196160e-01 
6.057291e-01 
5.928991e-01 
5.811885e-01 
5.706592e-01 
5.613687e-01 
5.533704e-01 
5.467165e-01 
5.414560e-01 
5.376364e-01 
5.353212e-01 
5.348762e-01 
5.367665e-01 
5.405186e-01 
5.458791e-01 
5.527118e-01 
5.609302e-01 
5.704641e-01 
5.812472e-01 
5.932145e-01 
6.063017e-01 
6.204453e-01 
6.355833e-01 
6.516559e-01 
6.686054e-01 
6.863770e-01 
7.049183e-01 
7.241802e-01 
7.441161e-01 
7.646825e-01 
7.858382e-01 
8.075443e-01 
8.297654e-01 
8.524685e-01 
8.756233e-01 
8.992012e-01 
1.238177e+00 
1.210693e+00 
1.183357e+00 
1.156202e+00 
1.129242e+00 
1.102490e+00 
1.075957e+00 
1.049658e+00 
1.023607e+00 
9.978184e-01 
9.723096e-01 
9.470985e-01 
9.222046e-01 
8.976490e-01 
8.734549e-01 
8.496471e-01 
8.262525e-01 
8.032999e-01 
7.808208e-01 
7.588488e-01 
7.374206e-01 
7.165751e-01 
6.963549e-01 
6.768052e-01 
6.579750e-01 
6.399172e-01 
6.226875e-01 
6.063447e-01 
5.909505e-01 
5.765693e-01 
5.632678e-01 
5.511139e-01 
5.401756e-01 
5.305170e-01 
5.221975e-01 
5.152757e-01 
5.098061e-01 
5.058409e-01 
5.034491e-01 
5.030431e-01 
5.050717e-01 
5.090150e-01 
5.146187e-01 
5.217470e-01 
5.303102e-01 
5.402324e-01 
5.514407e-01 
5.638636e-01 
5.774304e-01 
5.920721e-01 
6.077218e-01 
6.243150e-01 
6.417902e-01 
6.600893e-01 
6.791572e-01 
6.989423e-01 
7.193961e-01 
7.404735e-01 
7.621317e-01 
7.843311e-01 
8.070354e-01 
8.302111e-01 
8.538273e-01 
8.778553e-01 
1.222531e+00 
1.194738e+00 
1.167087e+00 
1.139606e+00 
1.112310e+00 
1.085211e+00 
1.058320e+00 
1.031650e+00 
1.005216e+00 
9.790327e-01 
9.531161e-01 
9.274842e-01 
9.021564e-01 
8.771539e-01 
8.524998e-01 
8.282190e-01 
8.043384e-01 
7.808875e-01 
7.578976e-01 
7.354032e-01 
7.134416e-01 
6.920529e-01 
6.712812e-01 
6.511737e-01 
6.317821e-01 
6.131619e-01 
5.953722e-01 
5.784758e-01 
5.625389e-01 
5.476312e-01 
5.338251e-01 
5.211952e-01 
5.098163e-01 
4.997595e-01 
4.910919e-01 
4.838791e-01 
4.781820e-01 
4.740586e-01 
4.715838e-01 
4.712199e-01 
4.733929e-01 
4.775386e-01 
4.834031e-01 
4.908503e-01 
4.997857e-01 
5.101262e-01 
5.217913e-01 
5.347020e-01 
5.487807e-01 
5.639520e-01 
5.801433e-01 
5.972855e-01 
6.153129e-01 
6.341639e-01 
6.537805e-01 
6.741088e-01 
6.950984e-01 
7.167026e-01 
7.388774e-01 
7.615822e-01 
7.847801e-01 
8.084373e-01 
8.325223e-01 
8.570064e-01 
1.207445e+00 
1.179347e+00 
1.151383e+00 
1.123580e+00 
1.095950e+00 
1.068506e+00 
1.041258e+00 
1.014218e+00 
9.874020e-01 
9.608229e-01 
9.344971e-01 
9.084422e-01 
8.826774e-01 
8.572236e-01 
8.321037e-01 
8.073427e-01 
7.829675e-01 
7.590075e-01 
7.354948e-01 
7.124640e-01 
6.899531e-01 
6.680034e-01 
6.466602e-01 
6.259726e-01 
6.059947e-01 
5.867848e-01 
5.684055e-01 
5.509235e-01 
5.344101e-01 
5.189405e-01 
5.045937e-01 
4.914513e-01 
4.795961e-01 
4.691074e-01 
4.600611e-01 
4.525312e-01 
4.465861e-01 
4.422903e-01 
4.397254e-01 
4.394065e-01 
4.417305e-01 
4.460916e-01 
4.522375e-01 
4.600301e-01 
4.693684e-01 
4.801607e-01 
4.923177e-01 
5.057517e-01 
5.203772e-01 
5.361120e-01 
5.528773e-01 
5.705988e-01 
5.892064e-01 
6.086349e-01 
6.288234e-01 
6.497156e-01 
6.712593e-01 
6.934064e-01 
7.161115e-01 
7.393337e-01 
7.630355e-01 
7.871825e-01 
8.117433e-01 
8.366890e-01 
1.192937e+00 
1.164541e+00 
1.136268e+00 
1.108146e+00 
1.080186e+00 
1.052400e+00 
1.024797e+00 
9.973902e-01 
9.701927e-01 
9.432187e-01 
9.164837e-01 
8.900049e-01 
8.638011e-01 
8.378931e-01 
8.123032e-01 
7.870561e-01 
7.621788e-01 
7.377006e-01 
7.136536e-01 
6.900730e-01 
6.669974e-01 
6.444691e-01 
6.225343e-01 
6.012439e-01 
5.806542e-01 
5.608262e-01 
5.418257e-01 
5.237241e-01 
5.065975e-01 
4.905273e-01 
4.755995e-01 
4.619038e-01 
4.495320e-01 
4.385732e-01 
4.291133e-01 
4.212364e-01 
4.150199e-01 
4.105360e-01 
4.078732e-01 
4.076020e-01 
4.100844e-01 
4.146758e-01 
4.211268e-01 
4.292952e-01 
4.390711e-01 
4.503525e-01 
4.630400e-01 
4.770362e-01 
4.922467e-01 
5.085816e-01 
5.259554e-01 
5.442881e-01 
5.635053e-01 
5.835378e-01 
6.043219e-01 
6.257991e-01 
6.479153e-01 
6.706210e-01 
6.938701e-01 
7.176211e-01 
7.418361e-01 
7.664807e-01 
7.915235e-01 
8.169355e-01 
1.179033e+00 
1.150342e+00 
1.121766e+00 
1.093330e+00 
1.065045e+00 
1.036920e+00 
1.008966e+00 
9.811953e-01 
9.536195e-01 
9.262525e-01 
8.991097e-01 
8.722075e-01 
8.455643e-01 
8.192003e-01 
7.931374e-01 
7.673998e-01 
7.420142e-01 
7.170097e-01 
6.924184e-01 
6.682757e-01 
6.446206e-01 
6.214961e-01 
5.989496e-01 
5.770334e-01 
5.558056e-01 
5.353298e-01 
5.156753e-01 
4.969176e-01 
4.791383e-01 
4.624253e-01 
4.468723e-01 
4.325781e-01 
4.196444e-01 
4.081719e-01 
3.982587e-01 
3.900007e-01 
3.834862e-01 
3.787962e-01 
3.760269e-01 
3.758053e-01 
3.784538e-01 
3.832933e-01 
3.900772e-01 
3.986560e-01 
4.089088e-01 
4.207214e-01 
4.339824e-01 
4.485834e-01 
4.644203e-01 
4.813944e-01 
4.994131e-01 
5.183906e-01 
5.382476e-01 
5.589112e-01 
5.803149e-01 
6.023979e-01 
6.251046e-01 
6.483843e-01 
6.721903e-01 
6.964807e-01 
7.212177e-01 
7.463667e-01 
7.718965e-01 
7.977786e-01 
1.165749e+00 
1.136768e+00 
1.107895e+00 
1.079151e+00 
1.050545e+00 
1.022088e+00 
9.937878e-01 
9.656567e-01 
9.377064e-01 
9.099499e-01 
8.824019e-01 
8.550783e-01 
8.279967e-01 
8.011765e-01 
7.746392e-01 
7.484082e-01 
7.225098e-01 
6.969728e-01 
6.718289e-01 
6.471136e-01 
6.228658e-01 
5.991291e-01 
5.759516e-01 
5.533870e-01 
5.314951e-01 
5.103418e-01 
4.899995e-01 
4.705480e-01 
4.520745e-01 
4.346735e-01 
4.184473e-01 
4.035045e-01 
3.899585e-01 
3.779231e-01 
3.675113e-01 
3.588335e-01 
3.519907e-01 
3.470742e-01 
3.441890e-01 
3.440178e-01 
3.468402e-01 
3.519495e-01 
3.590991e-01 
3.681288e-01 
3.789036e-01 
3.912949e-01 
4.051776e-01 
4.204306e-01 
4.369387e-01 
4.545939e-01 
4.732961e-01 
4.929531e-01 
5.134809e-01 
5.348029e-01 
5.568499e-01 
5.795590e-01 
6.028735e-01 
6.267415e-01 
6.511163e-01 
6.759559e-01 
7.012223e-01 
7.268814e-01 
7.529023e-01 
7.792569e-01 
1.153057e+00 
1.123800e+00 
1.094639e+00 
1.065594e+00 
1.036676e+00 
1.007892e+00 
9.792538e-01 
9.507699e-01 
9.224520e-01 
8.943126e-01 
8.663654e-01 
8.386257e-01 
8.111103e-01 
7.838379e-01 
7.568288e-01 
7.301060e-01 
7.036948e-01 
6.776234e-01 
6.519232e-01 
6.266289e-01 
6.017796e-01 
5.774186e-01 
5.535944e-01 
5.303617e-01 
5.077816e-01 
4.859220e-01 
4.648586e-01 
4.446749e-01 
4.254637e-01 
4.073266e-01 
3.903749e-01 
3.747285e-01 
3.605141e-01 
3.478612e-01 
3.368999e-01 
3.277581e-01 
3.205524e-01 
3.153862e-01 
3.123744e-01 
3.122467e-01 
3.152435e-01 
3.206487e-01 
3.282031e-01 
3.377308e-01 
3.490800e-01 
3.621050e-01 
3.766644e-01 
3.926227e-01 
4.098522e-01 
4.282349e-01 
4.476625e-01 
4.680366e-01 
4.892683e-01 
5.112777e-01 
5.339929e-01 
5.573496e-01 
5.812898e-01 
6.057612e-01 
6.307170e-01 
6.561152e-01 
6.819184e-01 
7.080928e-01 
7.346082e-01 
7.614371e-01 
1.141075e+00 
1.111542e+00 
1.082099e+00 
1.052761e+00 
1.023537e+00 
9.944363e-01 
9.654659e-01 
9.366359e-01 
9.079567e-01 
8.794401e-01 
8.510990e-01 
8.229477e-01 
7.950021e-01 
7.672799e-01 
7.398008e-01 
7.125865e-01 
6.856613e-01 
6.590524e-01 
6.327903e-01 
6.069091e-01 
5.814470e-01 
5.564472e-01 
5.319581e-01 
5.080346e-01 
4.847386e-01 
4.621399e-01 
4.403166e-01 
4.193563e-01 
3.993569e-01 
3.804277e-01 
3.626896e-01 
3.462751e-01 
3.313263e-01 
3.179909e-01 
3.064193e-01 
2.967606e-01 
2.891510e-01 
2.837081e-01 
2.805588e-01 
2.804830e-01 
2.836729e-01 
2.894092e-01 
2.974158e-01 
3.074974e-01 
3.194820e-01 
3.332033e-01 
3.485007e-01 
3.652221e-01 
3.832265e-01 
4.023845e-01 
4.225799e-01 
4.437081e-01 
4.656755e-01 
4.883991e-01 
5.118052e-01 
5.358280e-01 
5.604088e-01 
5.854951e-01 
6.110403e-01 
6.370034e-01 
6.633475e-01 
6.900397e-01 
7.170505e-01 
7.443534e-01 
1.129788e+00 
1.099994e+00 
1.070278e+00 
1.040658e+00 
1.011138e+00 
9.817287e-01 
9.524359e-01 
9.232690e-01 
8.942376e-01 
8.653524e-01 
8.366256e-01 
8.080703e-01 
7.797014e-01 
7.515356e-01 
7.235910e-01 
6.958885e-01 
6.684511e-01 
6.413048e-01 
6.144787e-01 
5.880060e-01 
5.619238e-01 
5.362744e-01 
5.111056e-01 
4.864719e-01 
4.624356e-01 
4.390675e-01 
4.164477e-01 
3.946673e-01 
3.738293e-01 
3.540503e-01 
3.354612e-01 
3.182079e-01 
3.024499e-01 
2.883560e-01 
2.761015e-01 
2.658618e-01 
2.577976e-01 
2.520441e-01 
2.487427e-01 
2.487169e-01 
2.521134e-01 
2.582199e-01 
2.667324e-01 
2.774320e-01 
2.901212e-01 
3.046090e-01 
3.207119e-01 
3.382589e-01 
3.570940e-01 
3.770766e-01 
3.980819e-01 
4.199996e-01 
4.427323e-01 
4.661942e-01 
4.903100e-01 
5.150132e-01 
5.402449e-01 
5.659529e-01 
5.920916e-01 
6.186208e-01 
6.455047e-01 
6.727115e-01 
7.002129e-01 
7.279837e-01 
1.119207e+00 
1.089161e+00 
1.059185e+00 
1.029292e+00 
9.994886e-01 
9.697817e-01 
9.401782e-01 
9.106860e-01 
8.813139e-01 
8.520717e-01 
8.229703e-01 
7.940219e-01 
7.652401e-01 
7.366401e-01 
7.082390e-01 
6.800560e-01 
6.521127e-01 
6.244335e-01 
5.970461e-01 
5.699819e-01 
5.432766e-01 
5.169711e-01 
4.911119e-01 
4.657525e-01 
4.409547e-01 
4.167893e-01 
3.933379e-01 
3.706940e-01 
3.489653e-01 
3.282754e-01 
3.087653e-01 
2.905952e-01 
2.739437e-01 
2.590042e-01 
2.459821e-01 
2.350859e-01 
2.265076e-01 
2.204038e-01 
2.169343e-01 
2.169563e-01 
2.205752e-01 
2.271007e-01 
2.361849e-01 
2.475792e-01 
2.610553e-01 
2.763911e-01 
2.933764e-01 
3.118186e-01 
3.315454e-01 
3.524050e-01 
3.742646e-01 
3.970087e-01 
4.205364e-01 
4.447602e-01 
4.696038e-01 
4.950006e-01 
5.208921e-01 
5.472273e-01 
5.739620e-01 
6.010571e-01 
6.284784e-01 
6.561956e-01 
6.841819e-01 
7.124134e-01 
1.109354e+00 
1.079069e+00 
1.048844e+00 
1.018691e+00 
9.886169e-01 
9.586260e-01 
9.287251e-01 
8.989212e-01 
8.692221e-01 
8.396365e-01 
8.101742e-01 
7.808461e-01 
7.516644e-01 
7.226430e-01 
6.937974e-01 
6.651450e-01 
6.367058e-01 
6.085023e-01 
5.805602e-01 
5.529088e-01 
5.255820e-01 
4.986183e-01 
4.720625e-01 
4.459661e-01 
4.203894e-01 
3.954024e-01 
3.710868e-01 
3.475375e-01 
3.248658e-01 
3.032012e-01 
2.826947e-01 
2.635212e-01 
2.458800e-01 
2.299931e-01 
2.161020e-01 
2.044576e-01 
1.952925e-01 
1.887904e-01 
1.851345e-01 
1.852009e-01 
1.890608e-01 
1.960668e-01 
2.058017e-01 
2.179832e-01 
2.323433e-01 
2.486214e-01 
2.665754e-01 
2.859887e-01 
3.066725e-01 
3.284638e-01 
3.512225e-01 
3.748285e-01 
3.991787e-01 
4.241847e-01 
4.497702e-01 
4.758697e-01 
5.024259e-01 
5.293898e-01 
5.567189e-01 
5.843762e-01 
6.123292e-01 
6.405495e-01 
6.690119e-01 
6.976944e-01 
1.100250e+00 
1.069740e+00 
1.039280e+00 
1.008882e+00 
9.785505e-01 
9.482906e-01 
9.181076e-01 
8.880076e-01 
8.579974e-01 
8.280846e-01 
7.982777e-01 
7.685862e-01 
7.390211e-01 
7.095944e-01 
6.803200e-01 
6.512135e-01 
6.222927e-01 
5.935779e-01 
5.650927e-01 
5.368638e-01 
5.089223e-01 
4.813041e-01 
4.540512e-01 
4.272124e-01 
4.008453e-01 
3.750176e-01 
3.498097e-01 
3.253165e-01 
3.016507e-01 
2.789467e-01 
2.573640e-01 
2.370917e-01 
2.183513e-01 
2.013970e-01 
1.865145e-01 
1.740086e-01 
1.641671e-01 
1.572077e-01 
1.533440e-01 
1.534500e-01 
1.575747e-01 
1.651379e-01 
1.756199e-01 
1.887006e-01 
2.040604e-01 
2.213898e-01 
2.404089e-01 
2.608758e-01 
2.825848e-01 
3.053625e-01 
3.290627e-01 
3.535624e-01 
3.787578e-01 
4.045609e-01 
4.308972e-01 
4.577029e-01 
4.849234e-01 
5.125122e-01 
5.404294e-01 
5.686403e-01 
5.971147e-01 
6.258265e-01 
6.547526e-01 
6.838728e-01 
1.091919e+00 
1.061196e+00 
1.030516e+00 
9.998884e-01 
9.693162e-01 
9.388038e-01 
9.083559e-01 
8.779775e-01 
8.476745e-01 
8.174531e-01 
7.873207e-01 
7.572854e-01 
7.273564e-01 
6.975443e-01 
6.678608e-01 