# vtk DataFile Version 2.0 
Quadtree Mesh 
ASCII 
DATASET UNSTRUCTURED_GRID 
POINTS 4096 double 
-1.000000e+00 -1.000000e+00 0.000000e+00
-9.682540e-01 -1.000000e+00 0.000000e+00
-9.365079e-01 -1.000000e+00 0.000000e+00
-9.047619e-01 -1.000000e+00 0.000000e+00
-8.730159e-01 -1.000000e+00 0.000000e+00
-8.412698e-01 -1.000000e+00 0.000000e+00
-8.095238e-01 -1.000000e+00 0.000000e+00
-7.777778e-01 -1.000000e+00 0.000000e+00
-7.460317e-01 -1.000000e+00 0.000000e+00
-7.142857e-01 -1.000000e+00 0.000000e+00
-6.825397e-01 -1.000000e+00 0.000000e+00
-6.507937e-01 -1.000000e+00 0.000000e+00
-6.190476e-01 -1.000000e+00 0.000000e+00
-5.873016e-01 -1.000000e+00 0.000000e+00
-5.555556e-01 -1.000000e+00 0.000000e+00
-5.238095e-01 -1.000000e+00 0.000000e+00
-4.920635e-01 -1.000000e+00 0.000000e+00
-4.603175e-01 -1.000000e+00 0.000000e+00
-4.285714e-01 -1.000000e+00 0.000000e+00
-3.968254e-01 -1.000000e+00 0.000000e+00
-3.650794e-01 -1.000000e+00 0.000000e+00
-3.333333e-01 -1.000000e+00 0.000000e+00
-3.015873e-01 -1.000000e+00 0.000000e+00
-2.698413e-01 -1.000000e+00 0.000000e+00
-2.380952e-01 -1.000000e+00 0.000000e+00
-2.063492e-01 -1.000000e+00 0.000000e+00
-1.746032e-01 -1.000000e+00 0.000000e+00
-1.428571e-01 -1.000000e+00 0.000000e+00
-1.111111e-01 -1.000000e+00 0.000000e+00
-7.936508e-02 -1.000000e+00 0.000000e+00
-4.761905e-02 -1.000000e+00 0.000000e+00
-1.587302e-02 -1.000000e+00 0.000000e+00
1.587302e-02 -1.000000e+00 0.000000e+00
4.761905e-02 -1.000000e+00 0.000000e+00
7.936508e-02 -1.000000e+00 0.000000e+00
1.111111e-01 -1.000000e+00 0.000000e+00
1.428571e-01 -1.000000e+00 0.000000e+00
1.746032e-01 -1.000000e+00 0.000000e+00
2.063492e-01 -1.000000e+00 0.000000e+00
2.380952e-01 -1.000000e+00 0.000000e+00
2.698413e-01 -1.000000e+00 0.000000e+00
3.015873e-01 -1.000000e+00 0.000000e+00
3.333333e-01 -1.000000e+00 0.000000e+00
3.650794e-01 -1.000000e+00 0.000000e+00
3.968254e-01 -1.000000e+00 0.000000e+00
4.285714e-01 -1.000000e+00 0.000000e+00
4.603175e-01 -1.000000e+00 0.000000e+00
4.920635e-01 -1.000000e+00 0.000000e+00
5.238095e-01 -1.000000e+00 0.000000e+00
5.555556e-01 -1.000000e+00 0.000000e+00
5.873016e-01 -1.000000e+00 0.000000e+00
6.190476e-01 -1.000000e+00 0.000000e+00
6.507937e-01 -1.000000e+00 0.000000e+00
6.825397e-01 -1.000000e+00 0.000000e+00
7.142857e-01 -1.000000e+00 0.000000e+00
7.460317e-01 -1.000000e+00 0.000000e+00
7.777778e-01 -1.000000e+00 0.000000e+00
8.095238e-01 -1.000000e+00 0.000000e+00
8.412698e-01 -1.000000e+00 0.000000e+00
8.730159e-01 -1.000000e+00 0.000000e+00
9.047619e-01 -1.000000e+00 0.000000e+00
9.365079e-01 -1.000000e+00 0.000000e+00
9.682540e-01 -1.000000e+00 0.000000e+00
1.000000e+00 -1.000000e+00 0.000000e+00
-1.000000e+00 -9.682540e-01 0.000000e+00
-9.682540e-01 -9.682540e-01 0.000000e+00
-9.365079e-01 -9.682540e-01 0.000000e+00
-9.047619e-01 -9.682540e-01 0.000000e+00
-8.730159e-01 -9.682540e-01 0.000000e+00
-8.412698e-01 -9.682540e-01 0.000000e+00
-8.095238e-01 -9.682540e-01 0.000000e+00
-7.777778e-01 -9.682540e-01 0.000000e+00
-7.460317e-01 -9.682540e-01 0.000000e+00
-7.142857e-01 -9.682540e-01 0.000000e+00
-6.825397e-01 -9.682540e-01 0.000000e+00
-6.507937e-01 -9.682540e-01 0.000000e+00
-6.190476e-01 -9.682540e-01 0.000000e+00
-5.873016e-01 -9.682540e-01 0.000000e+00
-5.555556e-01 -9.682540e-01 0.000000e+00
-5.238095e-01 -9.682540e-01 0.000000e+00
-4.920635e-01 -9.682540e-01 0.000000e+00
-4.603175e-01 -9.682540e-01 0.000000e+00
-4.285714e-01 -9.682540e-01 0.000000e+00
-3.968254e-01 -9.682540e-01 0.000000e+00
-3.650794e-01 -9.682540e-01 0.000000e+00
-3.333333e-01 -9.682540e-01 0.000000e+00
-3.015873e-01 -9.682540e-01 0.000000e+00
-2.698413e-01 -9.682540e-01 0.000000e+00
-2.380952e-01 -9.682540e-01 0.000000e+00
-2.063492e-01 -9.682540e-01 0.000000e+00
-1.746032e-01 -9.682540e-01 0.000000e+00
-1.428571e-01 -9.682540e-01 0.000000e+00
-1.111111e-01 -9.682540e-01 0.000000e+00
-7.936508e-02 -9.682540e-01 0.000000e+00
-4.761905e-02 -9.682540e-01 0.000000e+00
-1.587302e-02 -9.682540e-01 0.000000e+00
1.587302e-02 -9.682540e-01 0.000000e+00
4.761905e-02 -9.682540e-01 0.000000e+00
7.936508e-02 -9.682540e-01 0.000000e+00
1.111111e-01 -9.682540e-01 0.000000e+00
1.428571e-01 -9.682540e-01 0.000000e+00
1.746032e-01 -9.682540e-01 0.000000e+00
2.063492e-01 -9.682540e-01 0.000000e+00
2.380952e-01 -9.682540e-01 0.000000e+00
2.698413e-01 -9.682540e-01 0.000000e+00
3.015873e-01 -9.682540e-01 0.000000e+00
3.333333e-01 -9.682540e-01 0.000000e+00
3.650794e-01 -9.682540e-01 0.000000e+00
3.968254e-01 -9.682540e-01 0.000000e+00
4.285714e-01 -9.682540e-01 0.000000e+00
4.603175e-01 -9.682540e-01 0.000000e+00
4.920635e-01 -9.682540e-01 0.000000e+00
5.238095e-01 -9.682540e-01 0.000000e+00
5.555556e-01 -9.682540e-01 0.000000e+00
5.873016e-01 -9.682540e-01 0.000000e+00
6.190476e-01 -9.682540e-01 0.000000e+00
6.507937e-01 -9.682540e-01 0.000000e+00
6.825397e-01 -9.682540e-01 0.000000e+00
7.142857e-01 -9.682540e-01 0.000000e+00
7.460317e-01 -9.682540e-01 0.000000e+00
7.777778e-01 -9.682540e-01 0.000000e+00
8.095238e-01 -9.682540e-01 0.000000e+00
8.412698e-01 -9.682540e-01 0.000000e+00
8.730159e-01 -9.682540e-01 0.000000e+00
9.047619e-01 -9.682540e-01 0.000000e+00
9.365079e-01 -9.682540e-01 0.000000e+00
9.682540e-01 -9.682540e-01 0.000000e+00
1.000000e+00 -9.682540e-01 0.000000e+00
-1.000000e+00 -9.365079e-01 0.000000e+00
-9.682540e-01 -9.365079e-01 0.000000e+00
-9.365079e-01 -9.365079e-01 0.000000e+00
-9.047619e-01 -9.365079e-01 0.000000e+00
-8.730159e-01 -9.365079e-01 0.000000e+00
-8.412698e-01 -9.365079e-01 0.000000e+00
-8.095238e-01 -9.365079e-01 0.000000e+00
-7.777778e-01 -9.365079e-01 0.000000e+00
-7.460317e-01 -9.365079e-01 0.000000e+00
-7.142857e-01 -9.365079e-01 0.000000e+00
-6.825397e-01 -9.365079e-01 0.000000e+00
-6.507937e-01 -9.365079e-01 0.000000e+00
-6.190476e-01 -9.365079e-01 0.000000e+00
-5.873016e-01 -9.365079e-01 0.000000e+00
-5.555556e-01 -9.365079e-01 0.000000e+00
-5.238095e-01 -9.365079e-01 0.000000e+00
-4.920635e-01 -9.365079e-01 0.000000e+00
-4.603175e-01 -9.365079e-01 0.000000e+00
-4.285714e-01 -9.365079e-01 0.000000e+00
-3.968254e-01 -9.365079e-01 0.000000e+00
-3.650794e-01 -9.365079e-01 0.000000e+00
-3.333333e-01 -9.365079e-01 0.000000e+00
-3.015873e-01 -9.365079e-01 0.000000e+00
-2.698413e-01 -9.365079e-01 0.000000e+00
-2.380952e-01 -9.365079e-01 0.000000e+00
-2.063492e-01 -9.365079e-01 0.000000e+00
-1.746032e-01 -9.365079e-01 0.000000e+00
-1.428571e-01 -9.365079e-01 0.000000e+00
-1.111111e-01 -9.365079e-01 0.000000e+00
-7.936508e-02 -9.365079e-01 0.000000e+00
-4.761905e-02 -9.365079e-01 0.000000e+00
-1.587302e-02 -9.365079e-01 0.000000e+00
1.587302e-02 -9.365079e-01 0.000000e+00
4.761905e-02 -9.365079e-01 0.000000e+00
7.936508e-02 -9.365079e-01 0.000000e+00
1.111111e-01 -9.365079e-01 0.000000e+00
1.428571e-01 -9.365079e-01 0.000000e+00
1.746032e-01 -9.365079e-01 0.000000e+00
2.063492e-01 -9.365079e-01 0.000000e+00
2.380952e-01 -9.365079e-01 0.000000e+00
2.698413e-01 -9.365079e-01 0.000000e+00
3.015873e-01 -9.365079e-01 0.000000e+00
3.333333e-01 -9.365079e-01 0.000000e+00
3.650794e-01 -9.365079e-01 0.000000e+00
3.968254e-01 -9.365079e-01 0.000000e+00
4.285714e-01 -9.365079e-01 0.000000e+00
4.603175e-01 -9.365079e-01 0.000000e+00
4.920635e-01 -9.365079e-01 0.000000e+00
5.238095e-01 -9.365079e-01 0.000000e+00
5.555556e-01 -9.365079e-01 0.000000e+00
5.873016e-01 -9.365079e-01 0.000000e+00
6.190476e-01 -9.365079e-01 0.000000e+00
6.507937e-01 -9.365079e-01 0.000000e+00
6.825397e-01 -9.365079e-01 0.000000e+00
7.142857e-01 -9.365079e-01 0.000000e+00
7.460317e-01 -9.365079e-01 0.000000e+00
7.777778e-01 -9.365079e-01 0.000000e+00
8.095238e-01 -9.365079e-01 0.000000e+00
8.412698e-01 -9.365079e-01 0.000000e+00
8.730159e-01 -9.365079e-01 0.000000e+00
9.047619e-01 -9.365079e-01 0.000000e+00
9.365079e-01 -9.365079e-01 0.000000e+00
9.682540e-01 -9.365079e-01 0.000000e+00
1.000000e+00 -9.365079e-01 0.000000e+00
-1.000000e+00 -9.047619e-01 0.000000e+00
-9.682540e-01 -9.047619e-01 0.000000e+00
-9.365079e-01 -9.047619e-01 0.000000e+00
-9.047619e-01 -9.047619e-01 0.000000e+00
-8.730159e-01 -9.047619e-01 0.000000e+00
-8.412698e-01 -9.047619e-01 0.000000e+00
-8.095238e-01 -9.047619e-01 0.000000e+00
-7.777778e-01 -9.047619e-01 0.000000e+00
-7.460317e-01 -9.047619e-01 0.000000e+00
-7.142857e-01 -9.047619e-01 0.000000e+00
-6.825397e-01 -9.047619e-01 0.000000e+00
-6.507937e-01 -9.047619e-01 0.000000e+00
-6.190476e-01 -9.047619e-01 0.000000e+00
-5.873016e-01 -9.047619e-01 0.000000e+00
-5.555556e-01 -9.047619e-01 0.000000e+00
-5.238095e-01 -9.047619e-01 0.000000e+00
-4.920635e-01 -9.047619e-01 0.000000e+00
-4.603175e-01 -9.047619e-01 0.000000e+00
-4.285714e-01 -9.047619e-01 0.000000e+00
-3.968254e-01 -9.047619e-01 0.000000e+00
-3.650794e-01 -9.047619e-01 0.000000e+00
-3.333333e-01 -9.047619e-01 0.000000e+00
-3.015873e-01 -9.047619e-01 0.000000e+00
-2.698413e-01 -9.047619e-01 0.000000e+00
-2.380952e-01 -9.047619e-01 0.000000e+00
-2.063492e-01 -9.047619e-01 0.000000e+00
-1.746032e-01 -9.047619e-01 0.000000e+00
-1.428571e-01 -9.047619e-01 0.000000e+00
-1.111111e-01 -9.047619e-01 0.000000e+00
-7.936508e-02 -9.047619e-01 0.000000e+00
-4.761905e-02 -9.047619e-01 0.000000e+00
-1.587302e-02 -9.047619e-01 0.000000e+00
1.587302e-02 -9.047619e-01 0.000000e+00
4.761905e-02 -9.047619e-01 0.000000e+00
7.936508e-02 -9.047619e-01 0.000000e+00
1.111111e-01 -9.047619e-01 0.000000e+00
1.428571e-01 -9.047619e-01 0.000000e+00
1.746032e-01 -9.047619e-01 0.000000e+00
2.063492e-01 -9.047619e-01 0.000000e+00
2.380952e-01 -9.047619e-01 0.000000e+00
2.698413e-01 -9.047619e-01 0.000000e+00
3.015873e-01 -9.047619e-01 0.000000e+00
3.333333e-01 -9.047619e-01 0.000000e+00
3.650794e-01 -9.047619e-01 0.000000e+00
3.968254e-01 -9.047619e-01 0.000000e+00
4.285714e-01 -9.047619e-01 0.000000e+00
4.603175e-01 -9.047619e-01 0.000000e+00
4.920635e-01 -9.047619e-01 0.000000e+00
5.238095e-01 -9.047619e-01 0.000000e+00
5.555556e-01 -9.047619e-01 0.000000e+00
5.873016e-01 -9.047619e-01 0.000000e+00
6.190476e-01 -9.047619e-01 0.000000e+00
[...]
POINT_DATA 4096 
SCALARS concentration double 1 
LOOKUP_TABLE default 
1.485579e+00 
1.463682e+00 
1.442079e+00 
1.420801e+00 
1.399857e+00 
1.379258e+00 
1.359020e+00 
1.339159e+00 
1.319689e+00 
1.300625e+00 
1.281982e+00 
1.263776e+00 
1.246020e+00 
1.228733e+00 
1.211930e+00 
1.195629e+00 
1.179849e+00 
1.164608e+00 
1.149925e+00 
1.135821e+00 
1.122317e+00 
1.109434e+00 
1.097192e+00 
1.085613e+00 
1.074717e+00 
1.064525e+00 
1.055057e+00 
1.046334e+00 
1.038373e+00 
1.031195e+00 
1.024816e+00 
1.019254e+00 
1.014526e+00 
1.010646e+00 
1.007624e+00 
1.005469e+00 
1.004194e+00 
1.003860e+00 
1.004730e+00 
1.006803e+00 
1.009998e+00 
1.014220e+00 
1.019394e+00 
1.025465e+00 
1.032394e+00 
1.040149e+00 
1.048706e+00 
1.058040e+00 
1.068130e+00 
1.078953e+00 
1.090488e+00 
1.102713e+00 
1.115604e+00 
1.129139e+00 
1.143296e+00 
1.158055e+00 
1.173395e+00 
1.189295e+00 
1.205736e+00 
1.222698e+00 
1.240161e+00 
1.258107e+00 
1.276518e+00 
1.295376e+00 
1.462643e+00 
1.440449e+00 
1.418546e+00 
1.396965e+00 
1.375712e+00 
1.354803e+00 
1.334251e+00 
1.314072e+00 
1.294282e+00 
1.274898e+00 
1.255935e+00 
1.237408e+00 
1.219334e+00 
1.201728e+00 
1.184608e+00 
1.167993e+00 
1.151902e+00 
1.136354e+00 
1.121369e+00 
1.106968e+00 
1.093173e+00 
1.080006e+00 
1.067490e+00 
1.055647e+00 
1.044498e+00 
1.034065e+00 
1.024371e+00 
1.015436e+00 
1.007280e+00 
9.999244e-01 
9.933872e-01 
9.876872e-01 
9.828428e-01 
9.788689e-01 
9.757757e-01 
9.735735e-01 
9.722765e-01 
9.719597e-01 
9.729010e-01 
9.750807e-01 
9.784017e-01 
9.827640e-01 
9.880912e-01 
9.943295e-01 
1.001441e+00 
1.009394e+00 
1.018164e+00 
1.027726e+00 
1.038057e+00 
1.049134e+00 
1.060933e+00 
1.073433e+00 
1.086608e+00 
1.100434e+00 
1.114890e+00 
1.129954e+00 
1.145603e+00 
1.161816e+00 
1.178572e+00 
1.195852e+00 
1.213634e+00 
1.231900e+00 
1.250631e+00 
1.269809e+00 
1.440004e+00 
1.417509e+00 
1.395303e+00 
1.373413e+00 
1.351848e+00 
1.330622e+00 
1.309750e+00 
1.289248e+00 
1.269132e+00 
1.249419e+00 
1.230126e+00 
1.211269e+00 
1.192865e+00 
1.174931e+00 
1.157485e+00 
1.140545e+00 
1.124132e+00 
1.108265e+00 
1.092966e+00 
1.078257e+00 
1.064161e+00 
1.050700e+00 
1.037898e+00 
1.025778e+00 
1.014365e+00 
1.003681e+00 
9.937489e-01 
9.845921e-01 
9.762322e-01 
9.686903e-01 
9.619870e-01 
9.561418e-01 
9.511744e-01 
9.471007e-01 
9.439319e-01 
9.416793e-01 
9.403589e-01 
9.400607e-01 
9.410781e-01 
9.433682e-01 
9.468185e-01 
9.513240e-01 
9.568084e-01 
9.632193e-01 
9.705191e-01 
9.786778e-01 
9.876688e-01 
9.974671e-01 
1.008048e+00 
1.019388e+00 
1.031462e+00 
1.044246e+00 
1.057714e+00 
1.071842e+00 
1.086605e+00 
1.101981e+00 
1.117947e+00 
1.134480e+00 
1.151560e+00 
1.169163e+00 
1.187271e+00 
1.205862e+00 
1.224919e+00 
1.244421e+00 
1.417668e+00 
1.394868e+00 
1.372355e+00 
1.350151e+00 
1.328269e+00 
1.306722e+00 
1.285525e+00 
1.264693e+00 
1.244244e+00 
1.224195e+00 
1.204564e+00 
1.185368e+00 
1.166625e+00 
1.148353e+00 
1.130569e+00 
1.113294e+00 
1.096548e+00 
1.080352e+00 
1.064728e+00 
1.049699e+00 
1.035289e+00 
1.021521e+00 
1.008421e+00 
9.960143e-01 
9.843247e-01 
9.733774e-01 
9.631971e-01 
9.538078e-01 
9.452331e-01 
9.374957e-01 
9.306175e-01 
9.246196e-01 
9.195227e-01 
9.153439e-01 
9.120954e-01 
9.097899e-01 
9.084449e-01 
9.081686e-01 
9.092676e-01 
9.116722e-01 
9.152555e-01 
9.199083e-01 
9.255553e-01 
9.321456e-01 
9.396425e-01 
9.480157e-01 
9.572380e-01 
9.672833e-01 
9.781258e-01 
9.897399e-01 
1.002100e+00 
1.015180e+00 
1.028953e+00 
1.043393e+00 
1.058474e+00 
1.074174e+00 
1.090467e+00 
1.107331e+00 
1.124742e+00 
1.142679e+00 
1.161121e+00 
1.180045e+00 
1.199434e+00 
1.219267e+00 
1.395647e+00 
1.372540e+00 
1.349714e+00 
1.327193e+00 
1.304989e+00 
1.283115e+00 
1.261586e+00 
1.240420e+00 
1.219631e+00 
1.199239e+00 
1.179262e+00 
1.159718e+00 
1.140627e+00 
1.122006e+00 
1.103875e+00 
1.086254e+00 
1.069164e+00 
1.052626e+00 
1.036665e+00 
1.021304e+00 
1.006568e+00 
9.924810e-01 
9.790707e-01 
9.663631e-01 
9.543846e-01 
9.431617e-01 
9.327207e-01 
9.230873e-01 
9.142869e-01 
9.063438e-01 
8.992814e-01 
8.931225e-01 
8.878891e-01 
8.835994e-01 
8.802670e-01 
8.779058e-01 
8.765349e-01 
8.762844e-01 
8.774703e-01 
8.799934e-01 
8.837132e-01 
8.885179e-01 
8.943336e-01 
9.011111e-01 
9.088141e-01 
9.174121e-01 
9.268768e-01 
9.371808e-01 
9.482968e-01 
9.601976e-01 
9.728559e-01 
9.862444e-01 
1.000335e+00 
1.015099e+00 
1.030512e+00 
1.046546e+00 
1.063178e+00 
1.080383e+00 
1.098137e+00 
1.116417e+00 
1.135201e+00 
1.154468e+00 
1.174197e+00 
1.194368e+00 
1.373954e+00 
1.350535e+00 
1.327393e+00 
1.304551e+00 
1.282019e+00 
1.259813e+00 
1.237949e+00 
1.216441e+00 
1.195307e+00 
1.174565e+00 
1.154234e+00 
1.134334e+00 
1.114884e+00 
1.095905e+00 
1.077416e+00 
1.059437e+00 
1.041991e+00 
1.025100e+00 
1.008790e+00 
9.930833e-01 
9.780073e-01 
9.635885e-01 
9.498543e-01 
9.368328e-01 
9.245519e-01 
9.130401e-01 
9.023254e-01 
8.924354e-01 
8.833974e-01 
8.752375e-01 
8.679810e-01 
8.616521e-01 
8.562745e-01 
8.518678e-01 
8.484468e-01 
8.460268e-01 
8.446285e-01 
8.444081e-01 
8.456865e-01 
8.483321e-01 
8.521921e-01 
8.571537e-01 
8.631451e-01 
8.701183e-01 
8.780375e-01 
8.868714e-01 
8.965904e-01 
9.071657e-01 
9.185682e-01 
9.307690e-01 
9.437390e-01 
9.574493e-01 
9.718702e-01 
9.869724e-01 
1.002728e+00 
1.019110e+00 
1.036092e+00 
1.053650e+00 
1.071757e+00 
1.090390e+00 
1.109527e+00 
1.129145e+00 
1.149223e+00 
1.169741e+00 
1.352601e+00 
1.328867e+00 
1.305406e+00 
1.282237e+00 
1.259374e+00 
1.236832e+00 
1.214625e+00 
1.192770e+00 
1.171285e+00 
1.150186e+00 
1.129494e+00 
1.109229e+00 
1.089412e+00 
1.070064e+00 
1.051205e+00 
1.032857e+00 
1.015043e+00 
9.977867e-01 
9.811128e-01 
9.650475e-01 
9.496182e-01 
9.348528e-01 
9.207805e-01 
9.074306e-01 
8.948331e-01 
8.830181e-01 
8.720157e-01 
8.618558e-01 
8.525674e-01 
8.441789e-01 
8.367173e-01 
8.302090e-01 
8.246790e-01 
8.201485e-01 
8.166338e-01 
8.141517e-01 
8.127243e-01 
8.125395e-01 
8.139164e-01 
8.166885e-01 
8.206930e-01 
8.258174e-01 
8.319920e-01 
8.391706e-01 
8.473169e-01 
8.563988e-01 
8.663852e-01 
8.772452e-01 
8.889481e-01 
9.014629e-01 
9.147588e-01 
9.288050e-01 
9.435703e-01 
9.590237e-01 
9.751356e-01 
9.918778e-01 
1.009223e+00 
1.027144e+00 
1.045615e+00 
1.064613e+00 
1.084112e+00 
1.104090e+00 
1.124526e+00 
1.145398e+00 
1.331608e+00 
1.307554e+00 
1.283769e+00 
1.260270e+00 
1.237071e+00 
1.214187e+00 
1.191633e+00 
1.169425e+00 
1.147581e+00 
1.126119e+00 
1.105059e+00 
1.084421e+00 
1.064226e+00 
1.044498e+00 
1.025257e+00 
1.006528e+00 
9.883329e-01 
9.706968e-01 
9.536460e-01 
9.372075e-01 
9.214100e-01 
9.062832e-01 
8.918576e-01 
8.781642e-01 
8.652347e-01 
8.531014e-01 
8.417967e-01 
8.313526e-01 
8.218005e-01 
8.131708e-01 
8.054929e-01 
7.987950e-01 
7.931039e-01 
7.884425e-01 
7.848288e-01 
7.822811e-01 
7.808232e-01 
7.806800e-01 
7.821613e-01 
7.850641e-01 
7.892179e-01 
7.945117e-01 
8.008787e-01 
8.082733e-01 
8.166591e-01 
8.260025e-01 
8.362704e-01 
8.474301e-01 
8.594485e-01 
8.722927e-01 
8.859298e-01 
9.003270e-01 
9.154515e-01 
9.312705e-01 
9.477527e-01 
9.648684e-01 
9.825887e-01 
1.000886e+00 
1.019734e+00 
1.039106e+00 
1.058978e+00 
1.079326e+00 
1.100129e+00 
1.121363e+00 
1.310986e+00 
1.286610e+00 
1.262498e+00 
1.238665e+00 
1.215125e+00 
1.191894e+00 
1.168987e+00 
1.146420e+00 
1.124212e+00 
1.102380e+00 
1.080944e+00 
1.059925e+00 
1.039344e+00 
1.019226e+00 
9.995945e-01 
9.804726e-01 
9.618852e-01 
9.438579e-01 
9.264178e-01 
9.095934e-01 
8.934147e-01 
8.779128e-01 
8.631197e-01 
8.490684e-01 
8.357923e-01 
8.233261e-01 
8.117044e-01 
8.009618e-01 
7.911320e-01 
7.822481e-01 
7.743418e-01 
7.674436e-01 
7.615823e-01 
7.567826e-01 
7.530646e-01 
7.504481e-01 
7.489579e-01 
7.488519e-01 
7.504274e-01 
7.534579e-01 
7.577636e-01 
7.632338e-01 
7.698030e-01 
7.774262e-01 
7.860656e-01 
7.956859e-01 
8.062520e-01 
8.177286e-01 
8.300804e-01 
8.432721e-01 
8.572684e-01 
8.720347e-01 
8.875360e-01 
9.037376e-01 
9.206065e-01 
9.381117e-01 
9.562229e-01 
9.749114e-01 
9.941492e-01 
1.013910e+00 
1.034168e+00 
1.054898e+00 
1.076079e+00 
1.097687e+00 
1.290751e+00 
1.266050e+00 
1.241607e+00 
1.217436e+00 
1.193553e+00 
1.169970e+00 
1.146705e+00 
1.123774e+00 
1.101195e+00 
1.078985e+00 
1.057166e+00 
1.035758e+00 
1.014783e+00 
9.942651e-01 
9.742295e-01 
9.547016e-01 
9.357074e-01 
9.172736e-01 
8.994283e-01 
8.822014e-01 
8.656242e-01 
8.497291e-01 
8.345501e-01 
8.201219e-01 
8.064804e-01 
7.936624e-01 
7.817050e-01 
7.706455e-01 
7.605206e-01 
7.513659e-01 
7.432160e-01 
7.361039e-01 
7.300610e-01 
7.251143e-01 
7.212856e-01 
7.185963e-01 
7.170724e-01 
7.170180e-01 
7.187050e-01 
7.218740e-01 
7.263404e-01 
7.319968e-01 
7.387801e-01 
7.466453e-01 
7.555534e-01 
7.654668e-01 
7.763477e-01 
7.881584e-01 
8.008609e-01 
8.144173e-01 
8.287901e-01 
8.439423e-01 
8.598366e-01 
8.764364e-01 
8.937074e-01 
9.116169e-01 
9.301334e-01 
9.492266e-01 
9.688676e-01 
9.890289e-01 
1.009684e+00 
1.030808e+00 
1.052378e+00 
1.074370e+00 
1.270914e+00 
1.245888e+00 
1.221113e+00 
1.196602e+00 
1.172370e+00 
1.148433e+00 
1.124805e+00 
1.101504e+00 
1.078547e+00 
1.055954e+00 
1.033744e+00 
1.011938e+00 
9.905602e-01 
9.696335e-01 
9.491838e-01 
9.292380e-01 
9.098238e-01 
8.909691e-01 
8.727035e-01 
8.550579e-01 
8.380649e-01 
8.217589e-01 
8.061756e-01 
7.913522e-01 
7.773267e-01 
7.641381e-01 
7.518265e-01 
7.404320e-01 
7.299943e-01 
7.205523e-01 
7.121433e-01 
7.048035e-01 
6.985668e-01 
6.934626e-01 
6.895149e-01 
6.867472e-01 
6.851861e-01 
6.851884e-01 
6.869906e-01 
6.903016e-01 
6.949344e-01 
7.007856e-01 
7.077941e-01 
7.159147e-01 
7.251062e-01 
7.353284e-01 
7.465407e-01 
7.587022e-01 
7.717722e-01 
7.857099e-01 
8.004752e-01 
8.160288e-01 
8.323311e-01 
8.493434e-01 
8.670298e-01 
8.853560e-01 
9.042889e-01 
9.237971e-01 
9.438505e-01 
9.644208e-01 
9.854806e-01 
1.007004e+00 
1.028968e+00 
1.051348e+00 
1.251496e+00 
1.226142e+00 
1.201032e+00 
1.176179e+00 
1.151596e+00 
1.127300e+00 
1.103305e+00 
1.079628e+00 
1.056289e+00 
1.033305e+00 
1.010697e+00 
9.884865e-01 
9.666963e-01 
9.453509e-01 
9.244765e-01 
9.041009e-01 
8.842530e-01 
8.649629e-01 
8.462612e-01 
8.281803e-01 
8.107542e-01 
7.940191e-01 
7.780127e-01 
7.627744e-01 
7.483448e-01 
7.347656e-01 
7.220797e-01 
7.103304e-01 
6.995610e-01 
6.898134e-01 
6.811287e-01 
6.735460e-01 
6.671025e-01 
6.618302e-01 
6.577557e-01 
6.549044e-01 
6.533037e-01 
6.533686e-01 
6.552902e-01 
6.587475e-01 
6.635541e-01 
6.696108e-01 
6.768583e-01 
6.852501e-01 
6.947426e-01 
7.052923e-01 
7.168553e-01 
7.293873e-01 
7.428444e-01 
7.571827e-01 
7.723594e-01 
7.883325e-01 
8.050600e-01 
8.225014e-01 
8.406188e-01 
8.593760e-01 
8.787388e-01 
8.986744e-01 
9.191517e-01 
9.401411e-01 
9.616149e-01 
9.835466e-01 
1.005911e+00 
1.028686e+00 
1.232511e+00 
1.206829e+00 
1.181383e+00 
1.156186e+00 
1.131250e+00 
1.106591e+00 
1.082225e+00 
1.058169e+00 
1.034441e+00 
1.011060e+00 
9.880473e-01 
9.654237e-01 
9.432126e-01 
9.214389e-01 
9.001293e-01 
8.793120e-01 
8.590173e-01 
8.392766e-01 
8.201227e-01 
8.015893e-01 
7.837121e-01 
7.665288e-01 
7.500793e-01 
7.344053e-01 
7.195502e-01 
7.055588e-01 
6.924770e-01 
6.803516e-01 
6.692295e-01 
6.591566e-01 
6.501776e-01 
6.423356e-01 
6.356710e-01 
6.302189e-01 
6.260088e-01 
6.230685e-01 
6.214261e-01 
6.215592e-01 
6.236037e-01 
6.272125e-01 
6.322014e-01 
6.384761e-01 
6.459780e-01 
6.546588e-01 
6.644718e-01 
6.753697e-01 
6.873047e-01 
7.002289e-01 
7.140944e-01 
7.288543e-01 
7.444626e-01 
7.608746e-01 
7.780458e-01 
7.959336e-01 
8.144981e-01 
8.337016e-01 
8.535083e-01 
8.738841e-01 
8.947969e-01 
9.162163e-01 
9.381135e-01 
9.604617e-01 
9.832355e-01 
1.006411e+00 
1.213979e+00 
1.187969e+00 
1.162185e+00 
1.136641e+00 
1.111350e+00 
1.086326e+00 
1.061586e+00 
1.037146e+00 
1.013025e+00 
9.892414e-01 
9.658167e-01 
9.427723e-01 
9.201319e-01 
8.979204e-01 
8.761649e-01 
8.548944e-01 
8.341397e-01 
8.139339e-01 
7.943113e-01 
7.753077e-01 
7.569604e-01 
7.393090e-01 
7.223953e-01 
7.062637e-01 
6.909604e-01 
6.765336e-01 
6.630325e-01 
6.505077e-01 
6.390103e-01 
6.285903e-01 
6.192970e-01 
6.111773e-01 
6.042757e-01 
5.986309e-01 
5.942756e-01 
5.912405e-01 
5.895540e-01 
5.897602e-01 
5.919311e-01 
5.956970e-01 
6.008783e-01 
6.073849e-01 
6.151586e-01 
6.241484e-01 
6.343036e-01 
6.455725e-01 
6.579030e-01 
6.712427e-01 
6.855398e-01 
7.007438e-01 
7.168053e-01 
7.336767e-01 
7.513108e-01 
7.696631e-01 
7.886915e-01 
8.083568e-01 
8.286215e-01 
8.494504e-01 
8.708104e-01 
8.926702e-01 
9.150003e-01 
9.377733e-01 
9.609634e-01 
9.845465e-01 
1.195917e+00 
1.169577e+00 
1.143455e+00 
1.117563e+00 
1.091915e+00 
1.066524e+00 
1.041407e+00 
1.016579e+00 
9.920605e-01 
9.678696e-01 
9.440271e-01 
9.205551e-01 
8.974771e-01 
8.748188e-01 
8.526073e-01 
8.308721e-01 
8.096449e-01 
7.889595e-01 
7.688520e-01 
7.493602e-01 
7.305233e-01 
7.123828e-01 
6.949830e-01 
6.783706e-01 
6.625950e-01 
6.477077e-01 
6.337621e-01 
6.208127e-01 
6.089152e-01 
5.981244e-01 
5.884944e-01 
5.800769e-01 
5.729209e-01 
5.670690e-01 
5.625580e-01 
5.594214e-01 
5.576887e-01 
5.579720e-01 
5.602723e-01 
5.642017e-01 
5.695869e-01 
5.763417e-01 
5.844067e-01 
5.937275e-01 
6.042489e-01 
6.159141e-01 
6.286656e-01 
6.424464e-01 
6.572003e-01 
6.728725e-01 
6.894103e-01 
7.067627e-01 
7.248802e-01 
7.437156e-01 
7.632252e-01 
7.833679e-01 
8.041049e-01 
8.253999e-01 
8.472185e-01 
8.695289e-01 
8.923009e-01 
9.155066e-01 
9.391198e-01 
9.631160e-01 
1.178346e+00 
1.151675e+00 
1.125214e+00 
1.098973e+00 
1.072966e+00 
1.047207e+00 
1.021710e+00 
9.964926e-01 
9.715729e-01 
9.469699e-01 
9.227042e-01 
8.987980e-01 
8.752751e-01 
8.521612e-01 
8.294838e-01 
8.072727e-01 
7.855603e-01 
7.643812e-01 
7.437728e-01 
7.237744e-01 
7.044275e-01 
6.857761e-01 
6.678669e-01 
6.507493e-01 
6.344759e-01 
6.191017e-01 
6.046843e-01 
5.912832e-01 
5.789587e-01 
5.677711e-01 
5.577800e-01 
5.490427e-01 
5.416130e-01 
5.355383e-01 
5.308596e-01 
5.276147e-01 
5.258336e-01 
5.261955e-01 
5.286273e-01 
5.327280e-01 
5.383309e-01 
5.453521e-01 
5.537307e-01 
5.634076e-01 
5.743220e-01 
5.864113e-01 
5.996124e-01 
6.138625e-01 
6.291005e-01 
6.452673e-01 
6.623062e-01 
6.801630e-01 
6.987854e-01 
7.181239e-01 
7.381328e-01 
7.587693e-01 
7.799934e-01 
8.017676e-01 
8.240568e-01 
8.468281e-01 
8.700510e-01 
8.936971e-01 
9.177400e-01 
9.421550e-01 
1.161304e+00 
1.134302e+00 
1.107500e+00 
1.080908e+00 
1.054540e+00 
1.028409e+00 
1.002530e+00 
9.769196e-01 
9.515947e-01 
9.265746e-01 
9.018800e-01 
8.775329e-01 
8.535572e-01 
8.299787e-01 
8.068253e-01 
7.841271e-01 
7.619167e-01 
7.402297e-01 
7.191041e-01 
6.985810e-01 
6.787041e-01 
6.595199e-01 
6.410776e-01 
6.234295e-01 
6.066314e-01 
5.907423e-01 
5.758243e-01 
5.619420e-01 
5.491610e-01 
5.375479e-01 
5.271684e-01 
5.180864e-01 
5.103614e-01 
5.040463e-01 
4.991873e-01 
4.958265e-01 
4.939954e-01 
4.944327e-01 
4.969968e-01 
5.012784e-01 
5.071151e-01 
5.144243e-01 
5.231419e-01 
5.332034e-01 
5.445413e-01 
5.570863e-01 
5.707686e-01 
5.855194e-01 
6.012722e-01 
6.179629e-01 
6.355308e-01 
6.539181e-01 
6.730694e-01 
6.929331e-01 
7.134615e-01 
7.346104e-01 
7.563385e-01 
7.786072e-01 
8.013805e-01 
8.246251e-01 
8.483099e-01 
8.724062e-01 
8.968874e-01 
9.217286e-01 
1.144782e+00 
1.117450e+00 
1.090311e+00 
1.063371e+00 
1.036644e+00 
1.010143e+00 
9.838824e-01 
9.578777e-01 
9.321462e-01 
9.067066e-01 
8.815793e-01 
8.567863e-01 
8.323515e-01 
8.083008e-01 
7.846620e-01 
7.614657e-01 
7.387449e-01 
7.165356e-01 
6.948766e-01 
6.738104e-01 
6.533824e-01 
6.336416e-01 
6.146400e-01 
5.964331e-01 
5.790801e-01 
5.626443e-01 
5.471926e-01 
5.327949e-01 
5.195234e-01 
5.074513e-01 
4.966518e-01 
4.871960e-01 
4.791507e-01 
4.725751e-01 
4.675208e-01 
4.640356e-01 
4.621523e-01 
4.626781e-01 
4.653847e-01 
4.698601e-01 
4.759493e-01 
4.835707e-01 
4.926556e-01 
5.031329e-01 
5.149276e-01 
5.279623e-01 
5.421599e-01 
5.574448e-01 
5.737444e-01 
5.909893e-01 
6.091144e-01 
6.280581e-01 
6.477618e-01 
6.681720e-01 
6.892394e-01 
7.109183e-01 
7.331660e-01 
7.559433e-01 
7.792134e-01 
8.029426e-01 
8.270995e-01 
8.516552e-01 
8.765830e-01 
9.018582e-01 
1.128808e+00 
1.101152e+00 
1.073678e+00 
1.046393e+00 
1.019308e+00 
9.924376e-01 
9.657950e-01 
9.393958e-01 
9.132565e-01 
8.873954e-01 
8.618324e-01 
8.365893e-01 
8.116900e-01 
7.871601e-01 
7.630277e-01 
7.393233e-01 
7.160804e-01 
6.933351e-01 
6.711274e-01 
6.495004e-01 
6.285011e-01 
6.081807e-01 
5.885938e-01 
5.697994e-01 
5.518605e-01 
5.348446e-01 
5.188240e-01 
5.038747e-01 
4.900759e-01 
4.775087e-01 
4.662546e-01 
4.563930e-01 
4.479990e-01 
4.411389e-01 
4.358714e-01 
4.322507e-01 
4.303115e-01 
4.309277e-01 
4.337814e-01 
4.384628e-01 
4.448243e-01 
4.527836e-01 
4.622660e-01 
4.731923e-01 
4.854784e-01 
4.990380e-01 
5.137855e-01 
5.296377e-01 
5.465153e-01 
5.643434e-01 
5.830521e-01 
6.025758e-01 
6.228531e-01 
6.438282e-01 
6.654502e-01 
6.876719e-01 
7.104498e-01 
7.337438e-01 
7.575170e-01 
7.817351e-01 
8.063667e-01 
8.313830e-01 
8.567572e-01 
8.824649e-01 
1.113405e+00 
1.085430e+00 
1.057625e+00 
1.029996e+00 
1.002557e+00 
9.753187e-01 
9.482955e-01 
9.215022e-01 
8.949549e-01 
8.686714e-01 
8.426709e-01 
8.169748e-01 
7.916066e-01 
7.665919e-01 
7.419585e-01 
7.177371e-01 
6.939610e-01 
6.706669e-01 
6.478952e-01 
6.256897e-01 
6.040990e-01 
5.831756e-01 
5.629770e-01 
5.435654e-01 
5.250079e-01 
5.073768e-01 
4.907496e-01 
4.752092e-01 
4.608427e-01 
4.477401e-01 
4.359923e-01 
4.256889e-01 
4.169142e-01 
4.097435e-01 
4.042430e-01 
4.004752e-01 
3.984775e-01 
3.991861e-01 
4.021926e-01 
4.070954e-01 
4.137533e-01 
4.220812e-01 
4.319968e-01 
4.434106e-01 
4.562280e-01 
4.703525e-01 
4.856890e-01 
5.021459e-01 
5.196366e-01 
5.380804e-01 
5.574022e-01 
5.775324e-01 
5.984067e-01 
6.199674e-01 
6.421616e-01 
6.649412e-01 
6.882617e-01 
7.120827e-01 
7.363669e-01 
7.610801e-01 
7.861909e-01 
8.116706e-01 
8.374928e-01 
8.636332e-01 
1.098595e+00 
1.070305e+00 
1.042174e+00 
1.014207e+00 
9.864162e-01 
9.588136e-01 
9.314123e-01 
9.042267e-01 
8.772724e-01 
8.505666e-01 
8.241280e-01 
7.979773e-01 
7.721374e-01 
7.466335e-01 
7.214933e-01 
6.967469e-01 
6.724280e-01 
6.485731e-01 
6.252229e-01 
6.024220e-01 
5.802197e-01 
5.586703e-01 
5.378334e-01 
5.177742e-01 
4.985639e-01 
4.802799e-01 
4.630057e-01 
4.468312e-01 
4.318523e-01 
4.181690e-01 
4.058836e-01 
3.950970e-01 
3.859054e-01 
3.783938e-01 
3.726376e-01 
3.687097e-01 
3.666504e-01 
3.674529e-01 
3.706189e-01 
3.757618e-01 
3.827443e-01 
3.914762e-01 
4.018655e-01 
4.138105e-01 
4.272040e-01 
4.419376e-01 
4.579055e-01 
4.750071e-01 
4.931483e-01 
5.122416e-01 
5.322073e-01 
5.529712e-01 
5.744666e-01 
5.966336e-01 
6.194179e-01 
6.427701e-01 
6.666455e-01 
6.910033e-01 
7.158060e-01 
7.410199e-01 
7.666137e-01 
7.925592e-01 
8.188303e-01 
8.454034e-01 
1.084399e+00 
1.055801e+00 
1.027349e+00 
9.990486e-01 
9.709117e-01 
9.429493e-01 
9.151739e-01 
8.875993e-01 
8.602404e-01 
8.331140e-01 
8.062381e-01 
7.796328e-01 
7.533200e-01 
7.273243e-01 
7.016729e-01 
6.763956e-01 
6.515255e-01 
6.270992e-01 
6.031574e-01 
5.797449e-01 
5.569119e-01 
5.347136e-01 
5.132118e-01 
4.924742e-01 
4.725759e-01 
4.535994e-01 
4.356347e-01 
4.187792e-01 
4.031384e-01 
3.888238e-01 
3.759506e-01 
3.646339e-01 
3.549832e-01 
3.470960e-01 
3.410579e-01 
3.369546e-01 
3.348305e-01 
3.357273e-01 
3.390612e-01 
3.444666e-01 
3.518066e-01 
3.609836e-01 
3.718932e-01 
3.844188e-01 
3.984382e-01 
4.138294e-01 
4.304749e-01 
4.482640e-01 
4.670944e-01 
4.868725e-01 
5.075130e-01 
5.289380e-01 
5.510782e-01 
5.738718e-01 
5.972631e-01 
6.212020e-01 
6.456434e-01 
6.705465e-01 
6.958742e-01 
7.215931e-01 
7.476725e-01 
7.740848e-01 
8.008045e-01 
8.278088e-01 
1.070836e+00 
1.041937e+00 
1.013170e+00 
9.845432e-01 
9.560663e-01 
9.277500e-01 
8.996060e-01 
8.716473e-01 
8.438883e-01 
8.163448e-01 
7.890345e-01 
7.619764e-01 
7.351916e-01 
7.087037e-01 
6.825391e-01 