# vtk DataFile Version 2.0 
Quadtree Mesh 
ASCII 
DATASET UNSTRUCTURED_GRID 
POINTS 4096 double 
-1.000000e+00 -1.000000e+00 0.000000e+00
-9.682540e-01 -1.000000e+00 0.000000e+00
-9.365079e-01 -1.000000e+00 0.000000e+00
-9.047619e-01 -1.000000e+00 0.000000e+00
-8.730159e-01 -1.000000e+00 0.000000e+00
-8.412698e-01 -1.000000e+00 0.000000e+00
-8.095238e-01 -1.000000e+00 0.000000e+00
-7.777778e-01 -1.000000e+00 0.000000e+00
-7.460317e-01 -1.000000e+00 0.000000e+00
-7.142857e-01 -1.000000e+00 0.000000e+00
-6.825397e-01 -1.000000e+00 0.000000e+00
-6.507937e-01 -1.000000e+00 0.000000e+00
-6.190476e-01 -1.000000e+00 0.000000e+00
-5.873016e-01 -1.000000e+00 0.000000e+00
-5.555556e-01 -1.000000e+00 0.000000e+00
-5.238095e-01 -1.000000e+00 0.000000e+00
-4.920635e-01 -1.000000e+00 0.000000e+00
-4.603175e-01 -1.000000e+00 0.000000e+00
-4.285714e-01 -1.000000e+00 0.000000e+00
-3.968254e-01 -1.000000e+00 0.000000e+00
-3.650794e-01 -1.000000e+00 0.000000e+00
-3.333333e-01 -1.000000e+00 0.000000e+00
-3.015873e-01 -1.000000e+00 0.000000e+00
-2.698413e-01 -1.000000e+00 0.000000e+00
-2.380952e-01 -1.000000e+00 0.000000e+00
-2.063492e-01 -1.000000e+00 0.000000e+00
-1.746032e-01 -1.000000e+00 0.000000e+00
-1.428571e-01 -1.000000e+00 0.000000e+00
-1.111111e-01 -1.000000e+00 0.000000e+00
-7.936508e-02 -1.000000e+00 0.000000e+00
-4.761905e-02 -1.000000e+00 0.000000e+00
-1.587302e-02 -1.000000e+00 0.000000e+00
1.587302e-02 -1.000000e+00 0.000000e+00
4.761905e-02 -1.000000e+00 0.000000e+00
7.936508e-02 -1.000000e+00 0.000000e+00
1.111111e-01 -1.000000e+00 0.000000e+00
1.428571e-01 -1.000000e+00 0.000000e+00
1.746032e-01 -1.000000e+00 0.000000e+00
2.063492e-01 -1.000000e+00 0.000000e+00
2.380952e-01 -1.000000e+00 0.000000e+00
2.698413e-01 -1.000000e+00 0.000000e+00
3.015873e-01 -1.000000e+00 0.000000e+00
3.333333e-01 -1.000000e+00 0.000000e+00
3.650794e-01 -1.000000e+00 0.000000e+00
3.968254e-01 -1.000000e+00 0.000000e+00
4.285714e-01 -1.000000e+00 0.000000e+00
4.603175e-01 -1.000000e+00 0.000000e+00
4.920635e-01 -1.000000e+00 0.000000e+00
5.238095e-01 -1.000000e+00 0.000000e+00
5.555556e-01 -1.000000e+00 0.000000e+00
5.873016e-01 -1.000000e+00 0.000000e+00
6.190476e-01 -1.000000e+00 0.000000e+00
6.507937e-01 -1.000000e+00 0.000000e+00
6.825397e-01 -1.000000e+00 0.000000e+00
7.142857e-01 -1.000000e+00 0.000000e+00
7.460317e-01 -1.000000e+00 0.000000e+00
7.777778e-01 -1.000000e+00 0.000000e+00
8.095238e-01 -1.000000e+00 0.000000e+00
8.412698e-01 -1.000000e+00 0.000000e+00
8.730159e-01 -1.000000e+00 0.000000e+00
9.047619e-01 -1.000000e+00 0.000000e+00
9.365079e-01 -1.000000e+00 0.000000e+00
9.682540e-01 -1.000000e+00 0.000000e+00
1.000000e+00 -1.000000e+00 0.000000e+00
-1.000000e+00 -9.682540e-01 0.000000e+00
-9.682540e-01 -9.682540e-01 0.000000e+00
-9.365079e-01 -9.682540e-01 0.000000e+00
-9.047619e-01 -9.682540e-01 0.000000e+00
-8.730159e-01 -9.682540e-01 0.000000e+00
-8.412698e-01 -9.682540e-01 0.000000e+00
-8.095238e-01 -9.682540e-01 0.000000e+00
-7.777778e-01 -9.682540e-01 0.000000e+00
-7.460317e-01 -9.682540e-01 0.000000e+00
-7.142857e-01 -9.682540e-01 0.000000e+00
-6.825397e-01 -9.682540e-01 0.000000e+00
-6.507937e-01 -9.682540e-01 0.000000e+00
-6.190476e-01 -9.682540e-01 0.000000e+00
-5.873016e-01 -9.682540e-01 0.000000e+00
-5.555556e-01 -9.682540e-01 0.000000e+00
-5.238095e-01 -9.682540e-01 0.000000e+00
-4.920635e-01 -9.682540e-01 0.000000e+00
-4.603175e-01 -9.682540e-01 0.000000e+00
-4.285714e-01 -9.682540e-01 0.000000e+00
-3.968254e-01 -9.682540e-01 0.000000e+00
-3.650794e-01 -9.682540e-01 0.000000e+00
-3.333333e-01 -9.682540e-01 0.000000e+00
-3.015873e-01 -9.682540e-01 0.000000e+00
-2.698413e-01 -9.682540e-01 0.000000e+00
-2.380952e-01 -9.682540e-01 0.000000e+00
-2.063492e-01 -9.682540e-01 0.000000e+00
-1.746032e-01 -9.682540e-01 0.000000e+00
-1.428571e-01 -9.682540e-01 0.000000e+00
-1.111111e-01 -9.682540e-01 0.000000e+00
-7.936508e-02 -9.682540e-01 0.000000e+00
-4.761905e-02 -9.682540e-01 0.000000e+00
-1.587302e-02 -9.682540e-01 0.000000e+00
1.587302e-02 -9.682540e-01 0.000000e+00
4.761905e-02 -9.682540e-01 0.000000e+00
7.936508e-02 -9.682540e-01 0.000000e+00
1.111111e-01 -9.682540e-01 0.000000e+00
1.428571e-01 -9.682540e-01 0.000000e+00
1.746032e-01 -9.682540e-01 0.000000e+00
2.063492e-01 -9.682540e-01 0.000000e+00
2.380952e-01 -9.682540e-01 0.000000e+00
2.698413e-01 -9.682540e-01 0.000000e+00
3.015873e-01 -9.682540e-01 0.000000e+00
3.333333e-01 -9.682540e-01 0.000000e+00
3.650794e-01 -9.682540e-01 0.000000e+00
3.968254e-01 -9.682540e-01 0.000000e+00
4.285714e-01 -9.682540e-01 0.000000e+00
4.603175e-01 -9.682540e-01 0.000000e+00
4.920635e-01 -9.682540e-01 0.000000e+00
5.238095e-01 -9.682540e-01 0.000000e+00
5.555556e-01 -9.682540e-01 0.000000e+00
5.873016e-01 -9.682540e-01 0.000000e+00
6.190476e-01 -9.682540e-01 0.000000e+00
6.507937e-01 -9.682540e-01 0.000000e+00
6.825397e-01 -9.682540e-01 0.000000e+00
7.142857e-01 -9.682540e-01 0.000000e+00
7.460317e-01 -9.682540e-01 0.000000e+00
7.777778e-01 -9.682540e-01 0.000000e+00
8.095238e-01 -9.682540e-01 0.000000e+00
8.412698e-01 -9.682540e-01 0.000000e+00
8.730159e-01 -9.682540e-01 0.000000e+00
9.047619e-01 -9.682540e-01 0.000000e+00
9.365079e-01 -9.682540e-01 0.000000e+00
9.682540e-01 -9.682540e-01 0.000000e+00
1.000000e+00 -9.682540e-01 0.000000e+00
-1.000000e+00 -9.365079e-01 0.000000e+00
-9.682540e-01 -9.365079e-01 0.000000e+00
-9.365079e-01 -9.365079e-01 0.000000e+00
-9.047619e-01 -9.365079e-01 0.000000e+00
-8.730159e-01 -9.365079e-01 0.000000e+00
-8.412698e-01 -9.365079e-01 0.000000e+00
-8.095238e-01 -9.365079e-01 0.000000e+00
-7.777778e-01 -9.365079e-01 0.000000e+00
-7.460317e-01 -9.365079e-01 0.000000e+00
-7.142857e-01 -9.365079e-01 0.000000e+00
-6.825397e-01 -9.365079e-01 0.000000e+00
-6.507937e-01 -9.365079e-01 0.000000e+00
-6.190476e-01 -9.365079e-01 0.000000e+00
-5.873016e-01 -9.365079e-01 0.000000e+00
-5.555556e-01 -9.365079e-01 0.000000e+00
-5.238095e-01 -9.365079e-01 0.000000e+00
-4.920635e-01 -9.365079e-01 0.000000e+00
-4.603175e-01 -9.365079e-01 0.000000e+00
-4.285714e-01 -9.365079e-01 0.000000e+00
-3.968254e-01 -9.365079e-01 0.000000e+00
-3.650794e-01 -9.365079e-01 0.000000e+00
-3.333333e-01 -9.365079e-01 0.000000e+00
-3.015873e-01 -9.365079e-01 0.000000e+00
-2.698413e-01 -9.365079e-01 0.000000e+00
-2.380952e-01 -9.365079e-01 0.000000e+00
-2.063492e-01 -9.365079e-01 0.000000e+00
-1.746032e-01 -9.365079e-01 0.000000e+00
-1.428571e-01 -9.365079e-01 0.000000e+00
-1.111111e-01 -9.365079e-01 0.000000e+00
-7.936508e-02 -9.365079e-01 0.000000e+00
-4.761905e-02 -9.365079e-01 0.000000e+00
-1.587302e-02 -9.365079e-01 0.000000e+00
1.587302e-02 -9.365079e-01 0.000000e+00
4.761905e-02 -9.365079e-01 0.000000e+00
7.936508e-02 -9.365079e-01 0.000000e+00
1.111111e-01 -9.365079e-01 0.000000e+00
1.428571e-01 -9.365079e-01 0.000000e+00
1.746032e-01 -9.365079e-01 0.000000e+00
2.063492e-01 -9.365079e-01 0.000000e+00
2.380952e-01 -9.365079e-01 0.000000e+00
2.698413e-01 -9.365079e-01 0.000000e+00
3.015873e-01 -9.365079e-01 0.000000e+00
3.333333e-01 -9.365079e-01 0.000000e+00
3.650794e-01 -9.365079e-01 0.000000e+00
3.968254e-01 -9.365079e-01 0.000000e+00
4.285714e-01 -9.365079e-01 0.000000e+00
4.603175e-01 -9.365079e-01 0.000000e+00
4.920635e-01 -9.365079e-01 0.000000e+00
5.238095e-01 -9.365079e-01 0.000000e+00
5.555556e-01 -9.365079e-01 0.000000e+00
5.873016e-01 -9.365079e-01 0.000000e+00
6.190476e-01 -9.365079e-01 0.000000e+00
6.507937e-01 -9.365079e-01 0.000000e+00
6.825397e-01 -9.365079e-01 0.000000e+00
7.142857e-01 -9.365079e-01 0.000000e+00
7.460317e-01 -9.365079e-01 0.000000e+00
7.777778e-01 -9.365079e-01 0.000000e+00
8.095238e-01 -9.365079e-01 0.000000e+00
8.412698e-01 -9.365079e-01 0.000000e+00
8.730159e-01 -9.365079e-01 0.000000e+00
9.047619e-01 -9.365079e-01 0.000000e+00
9.365079e-01 -9.365079e-01 0.000000e+00
9.682540e-01 -9.365079e-01 0.000000e+00
1.000000e+00 -9.365079e-01 0.000000e+00
-1.000000e+00 -9.047619e-01 0.000000e+00
-9.682540e-01 -9.047619e-01 0.000000e+00
-9.365079e-01 -9.047619e-01 0.000000e+00
-9.047619e-01 -9.047619e-01 0.000000e+00
-8.730159e-01 -9.047619e-01 0.000000e+00
-8.412698e-01 -9.047619e-01 0.000000e+00
-8.095238e-01 -9.047619e-01 0.000000e+00
-7.777778e-01 -9.047619e-01 0.000000e+00
-7.460317e-01 -9.047619e-01 0.000000e+00
-7.142857e-01 -9.047619e-01 0.000000e+00
-6.825397e-01 -9.047619e-01 0.000000e+00
-6.507937e-01 -9.047619e-01 0.000000e+00
-6.190476e-01 -9.047619e-01 0.000000e+00
-5.873016e-01 -9.047619e-01 0.000000e+00
-5.555556e-01 -9.047619e-01 0.000000e+00
-5.238095e-01 -9.047619e-01 0.000000e+00
-4.920635e-01 -9.047619e-01 0.000000e+00
-4.603175e-01 -9.047619e-01 0.000000e+00
-4.285714e-01 -9.047619e-01 0.000000e+00
-3.968254e-01 -9.047619e-01 0.000000e+00
-3.650794e-01 -9.047619e-01 0.000000e+00
-3.333333e-01 -9.047619e-01 0.000000e+00
-3.015873e-01 -9.047619e-01 0.000000e+00
-2.698413e-01 -9.047619e-01 0.000000e+00
-2.380952e-01 -9.047619e-01 0.000000e+00
-2.063492e-01 -9.047619e-01 0.000000e+00
-1.746032e-01 -9.047619e-01 0.000000e+00
-1.428571e-01 -9.047619e-01 0.000000e+00
-1.111111e-01 -9.047619e-01 0.000000e+00
-7.936508e-02 -9.047619e-01 0.000000e+00
-4.761905e-02 -9.047619e-01 0.000000e+00
-1.587302e-02 -9.047619e-01 0.000000e+00
1.587302e-02 -9.047619e-01 0.000000e+00
4.761905e-02 -9.047619e-01 0.000000e+00
7.936508e-02 -9.047619e-01 0.000000e+00
1.111111e-01 -9.047619e-01 0.000000e+00
1.428571e-01 -9.047619e-01 0.000000e+00
1.746032e-01 -9.047619e-01 0.000000e+00
2.063492e-01 -9.047619e-01 0.000000e+00
2.380952e-01 -9.047619e-01 0.000000e+00
2.698413e-01 -9.047619e-01 0.000000e+00
3.015873e-01 -9.047619e-01 0.000000e+00
3.333333e-01 -9.047619e-01 0.000000e+00
3.650794e-01 -9.047619e-01 0.000000e+00
3.968254e-01 -9.047619e-01 0.000000e+00
4.285714e-01 -9.047619e-01 0.000000e+00
4.603175e-01 -9.047619e-01 0.000000e+00
4.920635e-01 -9.047619e-01 0.000000e+00
5.238095e-01 -9.047619e-01 0.000000e+00
5.555556e-01 -9.047619e-01 0.000000e+00
5.873016e-01 -9.047619e-01 0.000000e+00
6.190476e-01 -9.047619e-01 0.000000e+00
[...]
POINT_DATA 4096 
SCALARS concentration double 1 
LOOKUP_TABLE default 
1.381105e+00 
1.356370e+00 
1.331819e+00 
1.307515e+00 
1.283476e+00 
1.259718e+00 
1.236254e+00 
1.213097e+00 
1.190264e+00 
1.167771e+00 
1.145634e+00 
1.123872e+00 
1.102504e+00 
1.081550e+00 
1.061033e+00 
1.040973e+00 
1.021395e+00 
1.002322e+00 
9.837807e-01 
9.657967e-01 
9.483972e-01 
9.316102e-01 
9.154646e-01 
8.999905e-01 
8.852184e-01 
8.711801e-01 
8.579079e-01 
8.454349e-01 
8.337946e-01 
8.230211e-01 
8.131483e-01 
8.042103e-01 
7.962407e-01 
7.892686e-01 
7.833171e-01 
7.784088e-01 
7.745644e-01 
7.718026e-01 
7.701479e-01 
7.698298e-01 
7.711445e-01 
7.739250e-01 
7.780104e-01 
7.832852e-01 
7.896741e-01 
7.971244e-01 
8.055938e-01 
8.150444e-01 
8.254396e-01 
8.367433e-01 
8.489200e-01 
8.619341e-01 
8.757507e-01 
8.903352e-01 
9.056539e-01 
9.216738e-01 
9.383627e-01 
9.556894e-01 
9.736240e-01 
9.921373e-01 
1.011202e+00 
1.030790e+00 
1.050877e+00 
1.071440e+00 
1.361356e+00 
1.336311e+00 
1.311443e+00 
1.286814e+00 
1.262445e+00 
1.238349e+00 
1.214540e+00 
1.191033e+00 
1.167842e+00 
1.144985e+00 
1.122479e+00 
1.100342e+00 
1.078594e+00 
1.057257e+00 
1.036351e+00 
1.015899e+00 
9.959265e-01 
9.764576e-01 
9.575185e-01 
9.391363e-01 
9.213391e-01 
9.041562e-01 
8.876179e-01 
8.717554e-01 
8.566015e-01 
8.421896e-01 
8.285544e-01 
8.157313e-01 
8.037565e-01 
7.926666e-01 
7.824987e-01 
7.732902e-01 
7.650778e-01 
7.578928e-01 
7.517606e-01 
7.467059e-01 
7.427516e-01 
7.399177e-01 
7.382297e-01 
7.379512e-01 
7.393708e-01 
7.422912e-01 
7.465423e-01 
7.520081e-01 
7.586142e-01 
7.663083e-01 
7.750471e-01 
7.847906e-01 
7.954999e-01 
8.071364e-01 
8.196619e-01 
8.330385e-01 
8.472288e-01 
8.621962e-01 
8.779049e-01 
8.943201e-01 
9.114081e-01 
9.291362e-01 
9.474730e-01 
9.663883e-01 
9.858532e-01 
1.005840e+00 
1.026323e+00 
1.047276e+00 
1.342020e+00 
1.316659e+00 
1.291471e+00 
1.266516e+00 
1.241813e+00 
1.217376e+00 
1.193218e+00 
1.169355e+00 
1.145802e+00 
1.122575e+00 
1.099693e+00 
1.077175e+00 
1.055040e+00 
1.033309e+00 
1.012006e+00 
9.911526e-01 
9.707747e-01 
9.508974e-01 
9.315477e-01 
9.127534e-01 
8.945438e-01 
8.769492e-01 
8.600013e-01 
8.437332e-01 
8.281794e-01 
8.133755e-01 
7.993587e-01 
7.861668e-01 
7.738390e-01 
7.624147e-01 
7.519347e-01 
7.424396e-01 
7.339686e-01 
7.265560e-01 
7.202300e-01 
7.150182e-01 
7.109456e-01 
7.080339e-01 
7.063095e-01 
7.060738e-01 
7.076029e-01 
7.106679e-01 
7.150909e-01 
7.207562e-01 
7.275906e-01 
7.355417e-01 
7.445645e-01 
7.546167e-01 
7.656566e-01 
7.776428e-01 
7.905341e-01 
8.042898e-01 
8.188701e-01 
8.342360e-01 
8.503496e-01 
8.671741e-01 
8.846741e-01 
9.028156e-01 
9.215656e-01 
9.408930e-01 
9.607677e-01 
9.811611e-01 
1.002046e+00 
1.023397e+00 
1.323109e+00 
1.297431e+00 
1.271921e+00 
1.246637e+00 
1.221597e+00 
1.196815e+00 
1.172305e+00 
1.148082e+00 
1.124162e+00 
1.100561e+00 
1.077297e+00 
1.054390e+00 
1.031860e+00 
1.009728e+00 
9.880183e-01 
9.667535e-01 
9.459591e-01 
9.256613e-01 
9.058876e-01 
8.866669e-01 
8.680292e-01 
8.500063e-01 
8.326315e-01 
8.159395e-01 
7.999668e-01 
7.847516e-01 
7.703334e-01 
7.567531e-01 
7.440525e-01 
7.322749e-01 
7.214646e-01 
7.116651e-01 
7.029191e-01 
6.952638e-01 
6.887310e-01 
6.833515e-01 
6.791527e-01 
6.761581e-01 
6.743951e-01 
6.742070e-01 
6.758503e-01 
6.790652e-01 
6.836676e-01 
6.895427e-01 
6.966186e-01 
7.048421e-01 
7.141661e-01 
7.245454e-01 
7.359352e-01 
7.482905e-01 
7.615671e-01 
7.757212e-01 
7.907102e-01 
8.064926e-01 
8.230281e-01 
8.402782e-01 
8.582055e-01 
8.767744e-01 
8.959508e-01 
9.157023e-01 
9.359977e-01 
9.568077e-01 
9.781045e-01 
9.998614e-01 
1.304638e+00 
1.278642e+00 
1.252809e+00 
1.227194e+00 
1.201815e+00 
1.176686e+00 
1.151820e+00 
1.127234e+00 
1.102941e+00 
1.078961e+00 
1.055309e+00 
1.032008e+00 
1.009076e+00 
9.865353e-01 
9.644097e-01 
9.427231e-01 
9.215009e-01 
9.007701e-01 
8.805587e-01 
8.608965e-01 
8.418148e-01 
8.233465e-01 
8.055264e-01 
7.883914e-01 
7.719802e-01 
7.563332e-01 
7.414928e-01 
7.275029e-01 
7.144087e-01 
7.022574e-01 
6.910966e-01 
6.809735e-01 
6.719341e-01 
6.640197e-01 
6.572658e-01 
6.517067e-01 
6.473729e-01 
6.442899e-01 
6.424862e-01 
6.423508e-01 
6.441137e-01 
6.474844e-01 
6.522746e-01 
6.583713e-01 
6.657035e-01 
6.742165e-01 
6.838608e-01 
6.945876e-01 
7.063482e-01 
7.190941e-01 
7.327772e-01 
7.473506e-01 
7.627685e-01 
7.789867e-01 
7.959627e-01 
8.136555e-01 
8.320263e-01 
8.510376e-01 
8.706542e-01 
8.908422e-01 
9.115699e-01 
9.328069e-01 
9.545246e-01 
9.766960e-01 
1.286624e+00 
1.260309e+00 
1.234152e+00 
1.208205e+00 
1.182485e+00 
1.157006e+00 
1.131783e+00 
1.106829e+00 
1.082162e+00 
1.057797e+00 
1.033753e+00 
1.010051e+00 
9.867098e-01 
9.637527e-01 
9.412025e-01 
9.190839e-01 
8.974226e-01 
8.762461e-01 
8.555830e-01 
8.354641e-01 
8.159216e-01 
7.969901e-01 
7.787061e-01 
7.611084e-01 
7.442378e-01 
7.281376e-01 
7.128531e-01 
6.984312e-01 
6.849211e-01 
6.723739e-01 
6.608406e-01 
6.503723e-01 
6.410196e-01 
6.328278e-01 
6.258367e-01 
6.200847e-01 
6.156060e-01 
6.124285e-01 
6.105820e-01 
6.105048e-01 
6.123928e-01 
6.159260e-01 
6.209136e-01 
6.272452e-01 
6.348502e-01 
6.436721e-01 
6.536576e-01 
6.647540e-01 
6.769083e-01 
6.900677e-01 
7.041803e-01 
7.191953e-01 
7.350637e-01 
7.517384e-01 
7.691742e-01 
7.873280e-01 
8.061590e-01 
8.256283e-01 
8.456991e-01 
8.663367e-01 
8.875082e-01 
9.091825e-01 
9.313306e-01 
9.539246e-01 
1.269086e+00 
1.242450e+00 
1.215968e+00 
1.189687e+00 
1.163625e+00 
1.137795e+00 
1.112212e+00 
1.086889e+00 
1.061842e+00 
1.037089e+00 
1.012649e+00 
9.885399e-01 
9.647837e-01 
9.414021e-01 
9.184186e-01 
8.958579e-01 
8.737461e-01 
8.521110e-01 
8.309822e-01 
8.103910e-01 
7.903711e-01 
7.709585e-01 
7.521913e-01 
7.341105e-01 
7.167594e-01 
7.001838e-01 
6.844320e-01 
6.695546e-01 
6.556050e-01 
6.426377e-01 
6.307079e-01 
6.198714e-01 
6.101833e-01 
6.016936e-01 
5.944473e-01 
5.884876e-01 
5.838527e-01 
5.805739e-01 
5.786822e-01 
5.786689e-01 
5.806874e-01 
5.843900e-01 
5.895860e-01 
5.961677e-01 
6.040641e-01 
6.132159e-01 
6.235658e-01 
6.350562e-01 
6.476290e-01 
6.612268e-01 
6.757933e-01 
6.912738e-01 
7.076157e-01 
7.247685e-01 
7.426846e-01 
7.613184e-01 
7.806272e-01 
8.005704e-01 
8.211099e-01 
8.422100e-01 
8.638370e-01 
8.859590e-01 
9.085465e-01 
9.315713e-01 
1.252027e+00 
1.225066e+00 
1.198258e+00 
1.171644e+00 
1.145240e+00 
1.119058e+00 
1.093113e+00 
1.067418e+00 
1.041991e+00 
1.016847e+00 
9.920059e-01 
9.674863e-01 
9.433091e-01 
9.194964e-01 
8.960716e-01 
8.730595e-01 
8.504866e-01 
8.283809e-01 
8.067729e-01 
7.856947e-01 
7.651814e-01 
7.452702e-01 
7.260012e-01 
7.074174e-01 
6.895645e-01 
6.724910e-01 
6.562483e-01 
6.408913e-01 
6.264770e-01 
6.130641e-01 
6.007126e-01 
5.894829e-01 
5.794352e-01 
5.706252e-01 
5.631036e-01 
5.569195e-01 
5.521161e-01 
5.487284e-01 
5.467893e-01 
5.468446e-01 
5.489985e-01 
5.528784e-01 
5.582955e-01 
5.651444e-01 
5.733533e-01 
5.828589e-01 
5.935987e-01 
6.055096e-01 
6.185279e-01 
6.325910e-01 
6.476378e-01 
6.636092e-01 
6.804487e-01 
6.981027e-01 
7.165203e-01 
7.356540e-01 
7.554586e-01 
7.758922e-01 
7.969154e-01 
8.184913e-01 
8.405855e-01 
8.631656e-01 
8.862014e-01 
9.096648e-01 
1.235408e+00 
1.208140e+00 
1.181012e+00 
1.154068e+00 
1.127324e+00 
1.100793e+00 
1.074488e+00 
1.048423e+00 
1.022615e+00 
9.970805e-01 
9.718372e-01 
9.469046e-01 
9.223032e-01 
8.980550e-01 
8.741833e-01 
8.507130e-01 
8.276709e-01 
8.050855e-01 
7.829877e-01 
7.614108e-01 
7.403908e-01 
7.199663e-01 
7.001793e-01 
6.810745e-01 
6.627000e-01 
6.451071e-01 
6.283505e-01 
6.124889e-01 
5.975837e-01 
5.836981e-01 
5.708972e-01 
5.592471e-01 
5.488138e-01 
5.396593e-01 
5.318412e-01 
5.254148e-01 
5.204289e-01 
5.169233e-01 
5.149328e-01 
5.150457e-01 
5.173271e-01 
5.213896e-01 
5.270412e-01 
5.341764e-01 
5.427208e-01 
5.526062e-01 
5.637640e-01 
5.761243e-01 
5.896174e-01 
6.041748e-01 
6.197301e-01 
6.362196e-01 
6.535828e-01 
6.717625e-01 
6.907050e-01 
7.103601e-01 
7.306807e-01 
7.516232e-01 
7.731471e-01 
7.952144e-01 
8.177898e-01 
8.408405e-01 
8.643360e-01 
8.882479e-01 
1.219395e+00 
1.191811e+00 
1.164363e+00 
1.137088e+00 
1.110003e+00 
1.083120e+00 
1.056453e+00 
1.030016e+00 
1.003824e+00 
9.778935e-01 
9.522429e-01 
9.268908e-01 
9.018576e-01 
8.771650e-01 
8.528362e-01 
8.288959e-01 
8.053712e-01 
7.822909e-01 
7.596865e-01 
7.375921e-01 
7.160449e-01 
6.950849e-01 
6.747555e-01 
6.551035e-01 
6.361794e-01 
6.180373e-01 
6.007353e-01 
5.843365e-01 
5.689064e-01 
5.545134e-01 
5.412284e-01 
5.291240e-01 
5.182733e-01 
5.087455e-01 
5.006053e-01 
4.939155e-01 
4.887318e-01 
4.850995e-01 
4.830567e-01 
4.832456e-01 
4.856732e-01 
4.899340e-01 
4.958392e-01 
5.032847e-01 
5.121928e-01 
5.224889e-01 
5.340969e-01 
5.469396e-01 
5.609401e-01 
5.760237e-01 
5.921181e-01 
6.091547e-01 
6.270687e-01 
6.457992e-01 
6.652895e-01 
6.854867e-01 
7.063419e-01 
7.278099e-01 
7.498489e-01 
7.724202e-01 
7.954879e-01 
8.190186e-01 
8.429816e-01 
8.673482e-01 
1.203936e+00 
1.176041e+00 
1.148273e+00 
1.120669e+00 
1.093245e+00 
1.066012e+00 
1.038983e+00 
1.012173e+00 
9.855961e-01 
9.592687e-01 
9.332082e-01 
9.074334e-01 
8.819640e-01 
8.568215e-01 
8.320286e-01 
8.076103e-01 
7.835934e-01 
7.600073e-01 
7.368837e-01 
7.142577e-01 
6.921672e-01 
6.706534e-01 
6.497613e-01 
6.295396e-01 
6.100409e-01 
5.913222e-01 
5.734455e-01 
5.564778e-01 
5.404895e-01 
5.255544e-01 
5.117498e-01 
4.991555e-01 
4.878522e-01 
4.779174e-01 
4.694249e-01 
4.624459e-01 
4.570445e-01 
4.532726e-01 
4.511718e-01 
4.514400e-01 
4.540211e-01 
4.584931e-01 
4.646714e-01 
4.724528e-01 
4.817544e-01 
4.924940e-01 
5.045864e-01 
5.179458e-01 
5.324875e-01 
5.481297e-01 
5.647941e-01 
5.824067e-01 
6.008981e-01 
6.202039e-01 
6.402640e-01 
6.610231e-01 
6.824305e-01 
7.044393e-01 
7.270069e-01 
7.500936e-01 
7.736631e-01 
7.976818e-01 
8.221188e-01 
8.469452e-01 
1.189046e+00 
1.160844e+00 
1.132761e+00 
1.104832e+00 
1.077072e+00 
1.049491e+00 
1.022103e+00 
9.949217e-01 
9.679605e-01 
9.412358e-01 
9.147643e-01 
8.885643e-01 
8.626551e-01 
8.370577e-01 
8.117948e-01 
7.868912e-01 
7.623737e-01 
7.382717e-01 
7.146174e-01 
6.914463e-01 
6.687969e-01 
6.467115e-01 
6.252363e-01 
6.044217e-01 
5.843225e-01 
5.649988e-01 
5.465160e-01 
5.289456e-01 
5.123630e-01 
4.968481e-01 
4.824852e-01 
4.693619e-01 
4.575678e-01 
4.471901e-01 
4.383125e-01 
4.310168e-01 
4.253765e-01 
4.214511e-01 
4.192860e-01 
4.196370e-01 
4.223801e-01 
4.270789e-01 
4.335537e-01 
4.417011e-01 
4.514313e-01 
4.626519e-01 
4.752674e-01 
4.891820e-01 
5.043023e-01 
5.205388e-01 
5.378065e-01 
5.560260e-01 
5.751233e-01 
5.950299e-01 
6.156829e-01 
6.370247e-01 
6.590025e-01 
6.815685e-01 
7.046786e-01 
7.282929e-01 
7.523744e-01 
7.768895e-01 
8.018073e-01 
8.270989e-01 
1.174748e+00 
1.146243e+00 
1.117850e+00 
1.089601e+00 
1.061508e+00 
1.033584e+00 
1.005840e+00 
9.782895e-01 
9.509462e-01 
9.238252e-01 
8.969428e-01 
8.703166e-01 
8.439654e-01 
8.179099e-01 
7.921724e-01 
7.667774e-01 
7.417518e-01 
7.171250e-01 
6.929294e-01 
6.692005e-01 
6.459774e-01 
6.233029e-01 
6.012242e-01 
5.797932e-01 
5.590670e-01 
5.391084e-01 
5.199866e-01 
5.017775e-01 
4.845618e-01 
4.684262e-01 
4.534624e-01 
4.397669e-01 
4.274394e-01 
4.165780e-01 
4.072785e-01 
3.996347e-01 
3.937311e-01 
3.896359e-01 
3.873984e-01 
3.878356e-01 
3.907507e-01 
3.956946e-01 
4.024937e-01 
4.110422e-01 
4.212410e-01 
4.329852e-01 
4.461670e-01 
4.606794e-01 
4.764191e-01 
4.932882e-01 
5.111948e-01 
5.300536e-01 
5.497860e-01 
5.703198e-01 
5.915893e-01 
6.135348e-01 
6.361018e-01 
6.592411e-01 
6.829078e-01 
7.070613e-01 
7.316645e-01 
7.566838e-01 
7.820882e-01 
8.078492e-01 
1.161060e+00 
1.132261e+00 
1.103563e+00 
1.074999e+00 
1.046580e+00 
1.018317e+00 
9.902213e-01 
9.623056e-01 
9.345832e-01 
9.070683e-01 
8.797765e-01 
8.527247e-01 
8.259312e-01 
7.994161e-01 
7.732012e-01 
7.473108e-01 
7.217714e-01 
6.966123e-01 
6.718659e-01 
6.475675e-01 
6.237563e-01 
6.004756e-01 
5.777733e-01 
5.557025e-01 
5.343222e-01 
5.136979e-01 
4.939027e-01 
4.750167e-01 
4.571266e-01 
4.403258e-01 
4.247144e-01 
4.103989e-01 
3.974902e-01 
3.860992e-01 
3.763356e-01 
3.683075e-01 
3.621125e-01 
3.578285e-01 
3.555090e-01 
3.560354e-01 
3.591342e-01 
3.643446e-01 
3.715002e-01 
3.804906e-01 
3.912037e-01 
4.035198e-01 
4.173163e-01 
4.324732e-01 
4.488766e-01 
4.664193e-01 
4.850023e-01 
5.045343e-01 
5.249320e-01 
5.461200e-01 
5.680299e-01 
5.905998e-01 
6.137738e-01 
6.375014e-01 
6.617371e-01 
6.864400e-01 
7.115729e-01 
7.371023e-01 
7.629977e-01 
7.892311e-01 
1.148006e+00 
1.118918e+00 
1.089924e+00 
1.061051e+00 
1.032311e+00 
1.003716e+00 
9.752743e-01 
9.469988e-01 
9.189017e-01 
8.909967e-01 
8.632986e-01 
8.358235e-01 
8.085891e-01 
7.816147e-01 
7.549218e-01 
7.285340e-01 
7.024774e-01 
6.767807e-01 
6.514758e-01 
6.265977e-01 
6.021853e-01 
5.782819e-01 
5.549362e-01 
5.322022e-01 
5.101407e-01 
4.888196e-01 
4.683153e-01 
4.487126e-01 
4.301039e-01 
4.125900e-01 
3.962801e-01 
3.812915e-01 
3.677479e-01 
3.557750e-01 
3.454989e-01 
3.370446e-01 
3.305255e-01 
3.260311e-01 
3.236192e-01 
3.242380e-01 
3.275334e-01 
3.330350e-01 
3.405847e-01 
3.500642e-01 
3.613445e-01 
3.742869e-01 
3.887519e-01 
4.046049e-01 
4.217199e-01 
4.399802e-01 
4.592790e-01 
4.795192e-01 
5.006134e-01 
5.224829e-01 
5.450566e-01 
5.682707e-01 
5.920679e-01 
6.163970e-01 
6.412122e-01 
6.664726e-01 
6.921413e-01 
7.181852e-01 
7.445741e-01 
7.712810e-01 
1.135598e+00 
1.106227e+00 
1.076942e+00 
1.047769e+00 
1.018717e+00 
9.897964e-01 
9.610162e-01 
9.323875e-01 
9.039222e-01 
8.756329e-01 
8.475337e-01 
8.196398e-01 
7.919683e-01 
7.645378e-01 
7.373689e-01 
7.104845e-01 
6.839098e-01 
6.576729e-01 
6.318044e-01 
6.063388e-01 
5.813142e-01 
5.567739e-01 
5.327666e-01 
5.093472e-01 
4.865780e-01 
4.645291e-01 
4.432799e-01 
4.229194e-01 
4.035461e-01 
3.852680e-01 
3.682042e-01 
3.524838e-01 
3.382449e-01 
3.256302e-01 
3.147855e-01 
3.058564e-01 
2.989756e-01 
2.942468e-01 
2.917326e-01 
2.924474e-01 
2.959542e-01 
3.017759e-01 
3.097644e-01 
3.197884e-01 
3.316966e-01 
3.453274e-01 
3.605211e-01 
3.771266e-01 
3.950048e-01 
4.140291e-01 
4.340850e-01 
4.550699e-01 
4.768920e-01 
4.994694e-01 
5.227288e-01 
5.466048e-01 
5.710394e-01 
5.959811e-01 
6.213843e-01 
6.472082e-01 
6.734166e-01 
6.999769e-01 
7.268599e-01 
7.540392e-01 
1.123788e+00 
1.094154e+00 
1.064593e+00 
1.035130e+00 
1.005777e+00 
9.765422e-01 
9.474341e-01 
9.184630e-01 
8.896397e-01 
8.609760e-01 
8.324852e-01 
8.041817e-01 
7.760815e-01 
7.482023e-01 
7.205640e-01 
6.931884e-01 
6.660996e-01 
6.393243e-01 
6.128922e-01 
5.868362e-01 
5.611939e-01 
5.360075e-01 
5.113255e-01 
4.872032e-01 
4.637038e-01 
4.408990e-01 
4.188708e-01 
3.977122e-01 
3.775270e-01 
3.584311e-01 
3.405537e-01 
3.240372e-01 
3.090358e-01 
2.957122e-01 
2.842355e-01 
2.747761e-01 
2.674913e-01 
2.625030e-01 
2.598804e-01 
2.606761e-01 
2.644035e-01 
2.705775e-01 
2.790561e-01 
2.896889e-01 
3.022949e-01 
3.166845e-01 
3.326746e-01 
3.500955e-01 
3.687939e-01 
3.886328e-01 
4.094900e-01 
4.312573e-01 
4.538390e-01 
4.771504e-01 
5.011165e-01 
5.256709e-01 
5.507557e-01 
5.763197e-01 
6.023177e-01 
6.287097e-01 
6.554603e-01 
6.825378e-01 
7.099141e-01 
7.375640e-01 
1.112745e+00 
1.082845e+00 
1.053013e+00 
1.023271e+00 
9.936257e-01 
9.640857e-01 
9.346589e-01 
9.053542e-01 
8.761816e-01 
8.471522e-01 
8.182779e-01 
7.895724e-01 
7.610507e-01 
7.327295e-01 
7.046273e-01 
6.767648e-01 
6.491644e-01 
6.218512e-01 
5.948531e-01 
5.682016e-01 
5.419326e-01 
5.160874e-01 
4.907138e-01 
4.658668e-01 
4.416099e-01 
4.180160e-01 
3.951688e-01 
3.731646e-01 
3.521124e-01 
3.321359e-01 
3.133747e-01 
2.959856e-01 
2.801415e-01 
2.660280e-01 
2.538413e-01 
2.437829e-01 
2.360413e-01 
2.307617e-01 
2.280216e-01 
2.289126e-01 
2.328855e-01 
2.394537e-01 
2.484881e-01 
2.598089e-01 
2.731961e-01 
2.884256e-01 
3.052873e-01 
3.235911e-01 
3.431691e-01 
3.638735e-01 
3.855746e-01 
4.081593e-01 
4.315285e-01 
4.555958e-01 
4.802853e-01 
5.055310e-01 
5.312753e-01 
5.574677e-01 
5.840639e-01 
6.110250e-01 
6.383168e-01 
6.659087e-01 
6.937740e-01 
7.218889e-01 
1.102445e+00 
1.072298e+00 
1.042208e+00 
1.012197e+00 
9.822706e-01 
9.524364e-01 
9.227015e-01 
8.930740e-01 
8.635628e-01 
8.341781e-01 
8.049310e-01 
7.758339e-01 
7.469007e-01 
7.181470e-01 
6.895899e-01 
6.612480e-01 
6.331423e-01 
6.052956e-01 
5.777338e-01 
5.504864e-01 
5.235873e-01 
4.970765e-01 
4.710002e-01 
4.454129e-01 
4.203773e-01 
3.959663e-01 
3.722647e-01 
3.493708e-01 
3.273981e-01 
3.064773e-01 
2.867586e-01 
2.684136e-01 
2.516357e-01 
2.366372e-01 
2.236476e-01 
2.129071e-01 
2.046448e-01 
1.990370e-01 
1.961714e-01 
1.971544e-01 
2.013930e-01 
2.084024e-01 
2.180709e-01 
2.301728e-01 
2.444365e-01 
2.605966e-01 
2.784120e-01 
2.976713e-01 
3.181912e-01 
3.398132e-01 
3.624008e-01 
3.858366e-01 
4.100192e-01 
4.348615e-01 
4.602879e-01 
4.862334e-01 
5.126413e-01 
5.394626e-01 
5.666546e-01 
5.941799e-01 
6.220059e-01 
6.501038e-01 
6.784485e-01 
7.070178e-01 
1.092889e+00 
1.062505e+00 
1.032171e+00 
1.001904e+00 
9.717107e-01 
9.415964e-01 
9.115679e-01 
8.816321e-01 
8.517973e-01 
8.220723e-01 
7.924672e-01 
7.629935e-01 
7.336637e-01 
7.044919e-01 
6.754934e-01 
6.466851e-01 
6.180854e-01 
5.897149e-01 
5.615971e-01 
5.337591e-01 
5.062326e-01 
4.790553e-01 
4.522717e-01 
4.259342e-01 
4.001039e-01 
3.748528e-01 
3.502649e-01 
3.264393e-01 
3.034925e-01 
2.815613e-01 
2.608057e-01 
2.414128e-01 
2.235981e-01 
2.076047e-01 
1.937021e-01 
1.821792e-01 
1.733189e-01 
1.673387e-01 
1.643403e-01 
1.654093e-01 
1.699383e-01 
1.774485e-01 
1.878504e-01 
2.008475e-01 
2.161007e-01 
2.332952e-01 
2.521564e-01 
2.724504e-01 
2.939781e-01 
3.165715e-01 
3.400882e-01 
3.644077e-01 
3.894279e-01 
4.150620e-01 
4.412359e-01 
4.678863e-01 
4.949586e-01 
5.224061e-01 
5.501881e-01 
5.782698e-01 
6.066204e-01 
6.352133e-01 
6.640254e-01 
6.930362e-01 
1.084100e+00 
1.053495e+00 
1.022931e+00 
9.924236e-01 
9.619781e-01 
9.315995e-01 
9.012934e-01 
8.710660e-01 
8.409243e-01 
8.108763e-01 
7.809310e-01 
7.510985e-01 
7.213898e-01 
6.918175e-01 
6.623948e-01 
6.331363e-01 
6.040581e-01 
5.751781e-01 
5.465171e-01 
5.180994e-01 
4.899542e-01 
4.621162e-01 
4.346271e-01 
4.075363e-01 
3.809023e-01 
3.547939e-01 
3.292932e-01 
3.044980e-01 
2.805256e-01 
2.575169e-01 
2.356404e-01 
2.150980e-01 
1.961287e-01 
1.790107e-01 
1.640615e-01 
1.516319e-01 
1.420754e-01 
1.356678e-01 
1.325269e-01 
1.336744e-01 
1.385253e-01 
1.466116e-01 
1.578752e-01 
1.719084e-01 
1.882844e-01 
2.066319e-01 
2.266405e-01 
2.480523e-01 
2.706541e-01 
2.942697e-01 
3.187532e-01 
3.439833e-01 
3.698589e-01 
3.962950e-01 
4.232203e-01 
4.505745e-01 
4.783062e-01 
5.063715e-01 
5.347331e-01 
5.633585e-01 
5.922199e-01 
6.212930e-01 
6.505568e-01 
6.799932e-01 
1.076103e+00 
1.045293e+00 
1.014514e+00 
9.837824e-01 
9.531018e-01 
9.224765e-01 
8.919111e-01 
8.614109e-01 
8.309818e-01 
8.006308e-01 
7.703657e-01 
7.401952e-01 
7.101288e-01 
6.801771e-01 
6.503512e-01 
6.206633e-01 
5.911269e-01 
5.617570e-01 
5.325716e-01 
5.035920e-01 
4.748440e-01 
4.463591e-01 
4.181750e-01 
3.903369e-01 
3.628988e-01 
3.359251e-01 
3.094935e-01 
2.836980e-01 
2.586539e-01 
2.345027e-01 
2.114187e-01 
1.896165e-01 
1.693588e-01 
1.509623e-01 
1.348033e-01 
1.213122e-01 
1.109294e-01 
1.040239e-01 
1.007280e-01 
1.019447e-01 
1.071583e-01 
1.159174e-01 
1.282118e-01 
1.434559e-01 
1.611126e-01 
1.807475e-01 
2.020118e-01 
2.246258e-01 
2.483649e-01 
2.730483e-01 
2.985294e-01 
3.246889e-01 
3.514290e-01 
3.786687e-01 
4.063412e-01 
4.343902e-01 
4.627687e-01 
4.914369e-01 
5.203608e-01 
5.495116e-01 
5.788644e-01 
6.083977e-01 
6.380932e-01 
6.679348e-01 
1.068924e+00 
1.037924e+00 
1.006949e+00 
9.760104e-01 
9.451132e-01 
9.142605e-01 
8.834559e-01 
8.527037e-01 
8.220091e-01 
7.913776e-01 
7.608160e-01 
7.303313e-01 
6.999316e-01 
6.696252e-01 
6.394212e-01 