# vtk DataFile Version 2.0 
Quadtree Mesh 
ASCII 
DATASET UNSTRUCTURED_GRID 
POINTS 4096 double 
-1.000000e+00 -1.000000e+00 0.000000e+00
-9.682540e-01 -1.000000e+00 0.000000e+00
-9.365079e-01 -1.000000e+00 0.000000e+00
-9.047619e-01 -1.000000e+00 0.000000e+00
-8.730159e-01 -1.000000e+00 0.000000e+00
-8.412698e-01 -1.000000e+00 0.000000e+00
-8.095238e-01 -1.000000e+00 0.000000e+00
-7.777778e-01 -1.000000e+00 0.000000e+00
-7.460317e-01 -1.000000e+00 0.000000e+00
-7.142857e-01 -1.000000e+00 0.000000e+00
-6.825397e-01 -1.000000e+00 0.000000e+00
-6.507937e-01 -1.000000e+00 0.000000e+00
-6.190476e-01 -1.000000e+00 0.000000e+00
-5.873016e-01 -1.000000e+00 0.000000e+00
-5.555556e-01 -1.000000e+00 0.000000e+00
-5.238095e-01 -1.000000e+00 0.000000e+00
-4.920635e-01 -1.000000e+00 0.000000e+00
-4.603175e-01 -1.000000e+00 0.000000e+00
-4.285714e-01 -1.000000e+00 0.000000e+00
-3.968254e-01 -1.000000e+00 0.000000e+00
-3.650794e-01 -1.000000e+00 0.000000e+00
-3.333333e-01 -1.000000e+00 0.000000e+00
-3.015873e-01 -1.000000e+00 0.000000e+00
-2.698413e-01 -1.000000e+00 0.000000e+00
-2.380952e-01 -1.000000e+00 0.000000e+00
-2.063492e-01 -1.000000e+00 0.000000e+00
-1.746032e-01 -1.000000e+00 0.000000e+00
-1.428571e-01 -1.000000e+00 0.000000e+00
-1.111111e-01 -1.000000e+00 0.000000e+00
-7.936508e-02 -1.000000e+00 0.000000e+00
-4.761905e-02 -1.000000e+00 0.000000e+00
-1.587302e-02 -1.000000e+00 0.000000e+00
1.587302e-02 -1.000000e+00 0.000000e+00
4.761905e-02 -1.000000e+00 0.000000e+00
7.936508e-02 -1.000000e+00 0.000000e+00
1.111111e-01 -1.000000e+00 0.000000e+00
1.428571e-01 -1.000000e+00 0.000000e+00
1.746032e-01 -1.000000e+00 0.000000e+00
2.063492e-01 -1.000000e+00 0.000000e+00
2.380952e-01 -1.000000e+00 0.000000e+00
2.698413e-01 -1.000000e+00 0.000000e+00
3.015873e-01 -1.000000e+00 0.000000e+00
3.333333e-01 -1.000000e+00 0.000000e+00
3.650794e-01 -1.000000e+00 0.000000e+00
3.968254e-01 -1.000000e+00 0.000000e+00
4.285714e-01 -1.000000e+00 0.000000e+00
4.603175e-01 -1.000000e+00 0.000000e+00
4.920635e-01 -1.000000e+00 0.000000e+00
5.238095e-01 -1.000000e+00 0.000000e+00
5.555556e-01 -1.000000e+00 0.000000e+00
5.873016e-01 -1.000000e+00 0.000000e+00
6.190476e-01 -1.000000e+00 0.000000e+00
6.507937e-01 -1.000000e+00 0.000000e+00
6.825397e-01 -1.000000e+00 0.000000e+00
7.142857e-01 -1.000000e+00 0.000000e+00
7.460317e-01 -1.000000e+00 0.000000e+00
7.777778e-01 -1.000000e+00 0.000000e+00
8.095238e-01 -1.000000e+00 0.000000e+00
8.412698e-01 -1.000000e+00 0.000000e+00
8.730159e-01 -1.000000e+00 0.000000e+00
9.047619e-01 -1.000000e+00 0.000000e+00
9.365079e-01 -1.000000e+00 0.000000e+00
9.682540e-01 -1.000000e+00 0.000000e+00
1.000000e+00 -1.000000e+00 0.000000e+00
-1.000000e+00 -9.682540e-01 0.000000e+00
-9.682540e-01 -9.682540e-01 0.000000e+00
-9.365079e-01 -9.682540e-01 0.000000e+00
-9.047619e-01 -9.682540e-01 0.000000e+00
-8.730159e-01 -9.682540e-01 0.000000e+00
-8.412698e-01 -9.682540e-01 0.000000e+00
-8.095238e-01 -9.682540e-01 0.000000e+00
-7.777778e-01 -9.682540e-01 0.000000e+00
-7.460317e-01 -9.682540e-01 0.000000e+00
-7.142857e-01 -9.682540e-01 0.000000e+00
-6.825397e-01 -9.682540e-01 0.000000e+00
-6.507937e-01 -9.682540e-01 0.000000e+00
-6.190476e-01 -9.682540e-01 0.000000e+00
-5.873016e-01 -9.682540e-01 0.000000e+00
-5.555556e-01 -9.682540e-01 0.000000e+00
-5.238095e-01 -9.682540e-01 0.000000e+00
-4.920635e-01 -9.682540e-01 0.000000e+00
-4.603175e-01 -9.682540e-01 0.000000e+00
-4.285714e-01 -9.682540e-01 0.000000e+00
-3.968254e-01 -9.682540e-01 0.000000e+00
-3.650794e-01 -9.682540e-01 0.000000e+00
-3.333333e-01 -9.682540e-01 0.000000e+00
-3.015873e-01 -9.682540e-01 0.000000e+00
-2.698413e-01 -9.682540e-01 0.000000e+00
-2.380952e-01 -9.682540e-01 0.000000e+00
-2.063492e-01 -9.682540e-01 0.000000e+00
-1.746032e-01 -9.682540e-01 0.000000e+00
-1.428571e-01 -9.682540e-01 0.000000e+00
-1.111111e-01 -9.682540e-01 0.000000e+00
-7.936508e-02 -9.682540e-01 0.000000e+00
-4.761905e-02 -9.682540e-01 0.000000e+00
-1.587302e-02 -9.682540e-01 0.000000e+00
1.587302e-02 -9.682540e-01 0.000000e+00
4.761905e-02 -9.682540e-01 0.000000e+00
7.936508e-02 -9.682540e-01 0.000000e+00
1.111111e-01 -9.682540e-01 0.000000e+00
1.428571e-01 -9.682540e-01 0.000000e+00
1.746032e-01 -9.682540e-01 0.000000e+00
2.063492e-01 -9.682540e-01 0.000000e+00
2.380952e-01 -9.682540e-01 0.000000e+00
2.698413e-01 -9.682540e-01 0.000000e+00
3.015873e-01 -9.682540e-01 0.000000e+00
3.333333e-01 -9.682540e-01 0.000000e+00
3.650794e-01 -9.682540e-01 0.000000e+00
3.968254e-01 -9.682540e-01 0.000000e+00
4.285714e-01 -9.682540e-01 0.000000e+00
4.603175e-01 -9.682540e-01 0.000000e+00
4.920635e-01 -9.682540e-01 0.000000e+00
5.238095e-01 -9.682540e-01 0.000000e+00
5.555556e-01 -9.682540e-01 0.000000e+00
5.873016e-01 -9.682540e-01 0.000000e+00
6.190476e-01 -9.682540e-01 0.000000e+00
6.507937e-01 -9.682540e-01 0.000000e+00
6.825397e-01 -9.682540e-01 0.000000e+00
7.142857e-01 -9.682540e-01 0.000000e+00
7.460317e-01 -9.682540e-01 0.000000e+00
7.777778e-01 -9.682540e-01 0.000000e+00
8.095238e-01 -9.682540e-01 0.000000e+00
8.412698e-01 -9.682540e-01 0.000000e+00
8.730159e-01 -9.682540e-01 0.000000e+00
9.047619e-01 -9.682540e-01 0.000000e+00
9.365079e-01 -9.682540e-01 0.000000e+00
9.682540e-01 -9.682540e-01 0.000000e+00
1.000000e+00 -9.682540e-01 0.000000e+00
-1.000000e+00 -9.365079e-01 0.000000e+00
-9.682540e-01 -9.365079e-01 0.000000e+00
-9.365079e-01 -9.365079e-01 0.000000e+00
-9.047619e-01 -9.365079e-01 0.000000e+00
-8.730159e-01 -9.365079e-01 0.000000e+00
-8.412698e-01 -9.365079e-01 0.000000e+00
-8.095238e-01 -9.365079e-01 0.000000e+00
-7.777778e-01 -9.365079e-01 0.000000e+00
-7.460317e-01 -9.365079e-01 0.000000e+00
-7.142857e-01 -9.365079e-01 0.000000e+00
-6.825397e-01 -9.365079e-01 0.000000e+00
-6.507937e-01 -9.365079e-01 0.000000e+00
-6.190476e-01 -9.365079e-01 0.000000e+00
-5.873016e-01 -9.365079e-01 0.000000e+00
-5.555556e-01 -9.365079e-01 0.000000e+00
-5.238095e-01 -9.365079e-01 0.000000e+00
-4.920635e-01 -9.365079e-01 0.000000e+00
-4.603175e-01 -9.365079e-01 0.000000e+00
-4.285714e-01 -9.365079e-01 0.000000e+00
-3.968254e-01 -9.365079e-01 0.000000e+00
-3.650794e-01 -9.365079e-01 0.000000e+00
-3.333333e-01 -9.365079e-01 0.000000e+00
-3.015873e-01 -9.365079e-01 0.000000e+00
-2.698413e-01 -9.365079e-01 0.000000e+00
-2.380952e-01 -9.365079e-01 0.000000e+00
-2.063492e-01 -9.365079e-01 0.000000e+00
-1.746032e-01 -9.365079e-01 0.000000e+00
-1.428571e-01 -9.365079e-01 0.000000e+00
-1.111111e-01 -9.365079e-01 0.000000e+00
-7.936508e-02 -9.365079e-01 0.000000e+00
-4.761905e-02 -9.365079e-01 0.000000e+00
-1.587302e-02 -9.365079e-01 0.000000e+00
1.587302e-02 -9.365079e-01 0.000000e+00
4.761905e-02 -9.365079e-01 0.000000e+00
7.936508e-02 -9.365079e-01 0.000000e+00
1.111111e-01 -9.365079e-01 0.000000e+00
1.428571e-01 -9.365079e-01 0.000000e+00
1.746032e-01 -9.365079e-01 0.000000e+00
2.063492e-01 -9.365079e-01 0.000000e+00
2.380952e-01 -9.365079e-01 0.000000e+00
2.698413e-01 -9.365079e-01 0.000000e+00
3.015873e-01 -9.365079e-01 0.000000e+00
3.333333e-01 -9.365079e-01 0.000000e+00
3.650794e-01 -9.365079e-01 0.000000e+00
3.968254e-01 -9.365079e-01 0.000000e+00
4.285714e-01 -9.365079e-01 0.000000e+00
4.603175e-01 -9.365079e-01 0.000000e+00
4.920635e-01 -9.365079e-01 0.000000e+00
5.238095e-01 -9.365079e-01 0.000000e+00
5.555556e-01 -9.365079e-01 0.000000e+00
5.873016e-01 -9.365079e-01 0.000000e+00
6.190476e-01 -9.365079e-01 0.000000e+00
6.507937e-01 -9.365079e-01 0.000000e+00
6.825397e-01 -9.365079e-01 0.000000e+00
7.142857e-01 -9.365079e-01 0.000000e+00
7.460317e-01 -9.365079e-01 0.000000e+00
7.777778e-01 -9.365079e-01 0.000000e+00
8.095238e-01 -9.365079e-01 0.000000e+00
8.412698e-01 -9.365079e-01 0.000000e+00
8.730159e-01 -9.365079e-01 0.000000e+00
9.047619e-01 -9.365079e-01 0.000000e+00
9.365079e-01 -9.365079e-01 0.000000e+00
9.682540e-01 -9.365079e-01 0.000000e+00
1.000000e+00 -9.365079e-01 0.000000e+00
-1.000000e+00 -9.047619e-01 0.000000e+00
-9.682540e-01 -9.047619e-01 0.000000e+00
-9.365079e-01 -9.047619e-01 0.000000e+00
-9.047619e-01 -9.047619e-01 0.000000e+00
-8.730159e-01 -9.047619e-01 0.000000e+00
-8.412698e-01 -9.047619e-01 0.000000e+00
-8.095238e-01 -9.047619e-01 0.000000e+00
-7.777778e-01 -9.047619e-01 0.000000e+00
-7.460317e-01 -9.047619e-01 0.000000e+00
-7.142857e-01 -9.047619e-01 0.000000e+00
-6.825397e-01 -9.047619e-01 0.000000e+00
-6.507937e-01 -9.047619e-01 0.000000e+00
-6.190476e-01 -9.047619e-01 0.000000e+00
-5.873016e-01 -9.047619e-01 0.000000e+00
-5.555556e-01 -9.047619e-01 0.000000e+00
-5.238095e-01 -9.047619e-01 0.000000e+00
-4.920635e-01 -9.047619e-01 0.000000e+00
-4.603175e-01 -9.047619e-01 0.000000e+00
-4.285714e-01 -9.047619e-01 0.000000e+00
-3.968254e-01 -9.047619e-01 0.000000e+00
-3.650794e-01 -9.047619e-01 0.000000e+00
-3.333333e-01 -9.047619e-01 0.000000e+00
-3.015873e-01 -9.047619e-01 0.000000e+00
-2.698413e-01 -9.047619e-01 0.000000e+00
-2.380952e-01 -9.047619e-01 0.000000e+00
-2.063492e-01 -9.047619e-01 0.000000e+00
-1.746032e-01 -9.047619e-01 0.000000e+00
-1.428571e-01 -9.047619e-01 0.000000e+00
-1.111111e-01 -9.047619e-01 0.000000e+00
-7.936508e-02 -9.047619e-01 0.000000e+00
-4.761905e-02 -9.047619e-01 0.000000e+00
-1.587302e-02 -9.047619e-01 0.000000e+00
1.587302e-02 -9.047619e-01 0.000000e+00
4.761905e-02 -9.047619e-01 0.000000e+00
7.936508e-02 -9.047619e-01 0.000000e+00
1.111111e-01 -9.047619e-01 0.000000e+00
1.428571e-01 -9.047619e-01 0.000000e+00
1.746032e-01 -9.047619e-01 0.000000e+00
2.063492e-01 -9.047619e-01 0.000000e+00
2.380952e-01 -9.047619e-01 0.000000e+00
2.698413e-01 -9.047619e-01 0.000000e+00
3.015873e-01 -9.047619e-01 0.000000e+00
3.333333e-01 -9.047619e-01 0.000000e+00
3.650794e-01 -9.047619e-01 0.000000e+00
3.968254e-01 -9.047619e-01 0.000000e+00
4.285714e-01 -9.047619e-01 0.000000e+00
4.603175e-01 -9.047619e-01 0.000000e+00
4.920635e-01 -9.047619e-01 0.000000e+00
5.238095e-01 -9.047619e-01 0.000000e+00
5.555556e-01 -9.047619e-01 0.000000e+00
5.873016e-01 -9.047619e-01 0.000000e+00
6.190476e-01 -9.047619e-01 0.000000e+00
[...]
POINT_DATA 4096 
SCALARS concentration double 1 
LOOKUP_TABLE default 
1.026430e+00 
1.005595e+00 
9.852115e-01 
9.653212e-01 
9.459460e-01 
9.271133e-01 
9.088520e-01 
8.911925e-01 
8.741665e-01 
8.578069e-01 
8.421479e-01 
8.272250e-01 
8.130744e-01 
7.997335e-01 
7.872402e-01 
7.756325e-01 
7.649486e-01 
7.552261e-01 
7.465012e-01 
7.388088e-01 
7.321807e-01 
7.266447e-01 
7.222222e-01 
7.189215e-01 
7.167214e-01 
7.158640e-01 
7.171816e-01 
7.199873e-01 
7.240934e-01 
7.294081e-01 
7.358709e-01 
7.434337e-01 
7.520513e-01 
7.616803e-01 
7.722805e-01 
7.838122e-01 
7.962351e-01 
8.095108e-01 
8.236015e-01 
8.384702e-01 
8.540807e-01 
8.703980e-01 
8.873881e-01 
9.050182e-01 
9.232568e-01 
9.420738e-01 
9.614402e-01 
9.813286e-01 
1.001713e+00 
1.022567e+00 
1.043869e+00 
1.065596e+00 
1.087725e+00 
1.110238e+00 
1.133114e+00 
1.156337e+00 
1.179888e+00 
1.203752e+00 
1.227913e+00 
1.252356e+00 
1.277069e+00 
1.302038e+00 
1.327251e+00 
1.352697e+00 
1.002512e+00 
9.812718e-01 
9.604785e-01 
9.401747e-01 
9.203830e-01 
9.011313e-01 
8.824499e-01 
8.643703e-01 
8.469257e-01 
8.301508e-01 
8.140818e-01 
7.987559e-01 
7.842119e-01 
7.704896e-01 
7.576297e-01 
7.456732e-01 
7.346613e-01 
7.246349e-01 
7.156335e-01 
7.076952e-01 
7.008549e-01 
6.951434e-01 
6.905844e-01 
6.871882e-01 
6.849367e-01 
6.841085e-01 
6.855254e-01 
6.884591e-01 
6.927254e-01 
6.982330e-01 
7.049206e-01 
7.127383e-01 
7.216382e-01 
7.315741e-01 
7.425035e-01 
7.543841e-01 
7.671730e-01 
7.808285e-01 
7.953103e-01 
8.105789e-01 
8.265963e-01 
8.433251e-01 
8.607298e-01 
8.787759e-01 
8.974306e-01 
9.166624e-01 
9.364413e-01 
9.567389e-01 
9.775282e-01 
9.987834e-01 
1.020480e+00 
1.042596e+00 
1.065109e+00 
1.087998e+00 
1.111244e+00 
1.134829e+00 
1.158736e+00 
1.182948e+00 
1.207450e+00 
1.232228e+00 
1.257267e+00 
1.282556e+00 
1.308081e+00 
1.333832e+00 
9.789608e-01 
9.573041e-01 
9.360896e-01 
9.153600e-01 
8.951385e-01 
8.754541e-01 
8.563377e-01 
8.378223e-01 
8.199424e-01 
8.027346e-01 
7.862369e-01 
7.704889e-01 
7.555316e-01 
7.414077e-01 
7.281607e-01 
7.158351e-01 
7.044754e-01 
6.941259e-01 
6.848300e-01 
6.766293e-01 
6.695623e-01 
6.636632e-01 
6.589584e-01 
6.554605e-01 
6.531545e-01 
6.523563e-01 
6.538744e-01 
6.569415e-01 
6.613765e-01 
6.670884e-01 
6.740145e-01 
6.821028e-01 
6.913025e-01 
7.015644e-01 
7.128428e-01 
7.250924e-01 
7.382677e-01 
7.523233e-01 
7.672160e-01 
7.829041e-01 
7.993468e-01 
8.165051e-01 
8.343413e-01 
8.528195e-01 
8.719052e-01 
8.915658e-01 
9.117702e-01 
9.324891e-01 
9.536945e-01 
9.753603e-01 
9.974615e-01 
1.019975e+00 
1.042878e+00 
1.066150e+00 
1.089772e+00 
1.113726e+00 
1.137993e+00 
1.162557e+00 
1.187404e+00 
1.212518e+00 
1.237887e+00 
1.263497e+00 
1.289336e+00 
1.315393e+00 
9.557977e-01 
9.337150e-01 
9.120684e-01 
8.909004e-01 
8.702356e-01 
8.501039e-01 
8.305373e-01 
8.115696e-01 
7.932370e-01 
7.755778e-01 
7.586319e-01 
7.424414e-01 
7.270498e-01 
7.125026e-01 
6.988466e-01 
6.861297e-01 
6.744004e-01 
6.637070e-01 
6.540968e-01 
6.456155e-01 
6.383060e-01 
6.322058e-01 
6.273448e-01 
6.237381e-01 
6.213745e-01 
6.206067e-01 
6.222282e-01 
6.254351e-01 
6.300485e-01 
6.359774e-01 
6.431572e-01 
6.515333e-01 
6.610516e-01 
6.716595e-01 
6.833075e-01 
6.959470e-01 
7.095294e-01 
7.240058e-01 
7.393298e-01 
7.554568e-01 
7.723436e-01 
7.899491e-01 
8.082336e-01 
8.271594e-01 
8.466908e-01 
8.667938e-01 
8.874363e-01 
9.085879e-01 
9.302200e-01 
9.523058e-01 
9.748198e-01 
9.977383e-01 
1.021039e+00 
1.044701e+00 
1.068704e+00 
1.093029e+00 
1.117661e+00 
1.142581e+00 
1.167775e+00 
1.193228e+00 
1.218928e+00 
1.244860e+00 
1.271014e+00 
1.297378e+00 
9.330470e-01 
9.105291e-01 
8.884394e-01 
8.668210e-01 
8.456993e-01 
8.251052e-01 
8.050722e-01 
7.856352e-01 
7.668318e-01 
7.487017e-01 
7.312872e-01 
7.146326e-01 
6.987842e-01 
6.837905e-01 
6.697017e-01 
6.565698e-01 
6.444473e-01 
6.333869e-01 
6.234406e-01 
6.146588e-01 
6.070888e-01 
6.007727e-01 
5.957441e-01 
5.920210e-01 
5.895959e-01 
5.888589e-01 
5.905871e-01 
5.939410e-01 
5.987439e-01 
6.049039e-01 
6.123546e-01 
6.210376e-01 
6.308952e-01 
6.418709e-01 
6.539111e-01 
6.669631e-01 
6.809748e-01 
6.958940e-01 
7.116706e-01 
7.282570e-01 
7.456075e-01 
7.636785e-01 
7.824285e-01 
8.018181e-01 
8.218099e-01 
8.423689e-01 
8.634618e-01 
8.850574e-01 
9.071264e-01 
9.296412e-01 
9.525762e-01 
9.759071e-01 
9.996113e-01 
1.023668e+00 
1.048056e+00 
1.072759e+00 
1.097757e+00 
1.123036e+00 
1.148579e+00 
1.174373e+00 
1.200405e+00 
1.226660e+00 
1.253129e+00 
1.279800e+00 
9.107342e-01 
8.877720e-01 
8.652286e-01 
8.431479e-01 
8.215558e-01 
8.004845e-01 
7.799686e-01 
7.600445e-01 
7.407511e-01 
7.221301e-01 
7.042255e-01 
6.870841e-01 
6.707551e-01 
6.552900e-01 
6.407430e-01 
6.271701e-01 
6.146286e-01 
6.031761e-01 
5.928697e-01 
5.837651e-01 
5.759149e-01 
5.693663e-01 
5.641571e-01 
5.603089e-01 
5.578185e-01 
5.571126e-01 
5.589519e-01 
5.624613e-01 
5.674661e-01 
5.738734e-01 
5.816137e-01 
5.906249e-01 
6.008448e-01 
6.122121e-01 
6.246688e-01 
6.381579e-01 
6.526229e-01 
6.680084e-01 
6.842603e-01 
7.013277e-01 
7.191622e-01 
7.377179e-01 
7.569512e-01 
7.768209e-01 
7.972883e-01 
8.183169e-01 
8.398725e-01 
8.619232e-01 
8.844389e-01 
9.073917e-01 
9.307553e-01 
9.545053e-01 
9.786188e-01 
1.003075e+00 
1.027853e+00 
1.052935e+00 
1.078304e+00 
1.103943e+00 
1.129837e+00 
1.155973e+00 
1.182336e+00 
1.208915e+00 
1.235699e+00 
1.262675e+00 
8.888864e-01 
8.654702e-01 
8.424634e-01 
8.199090e-01 
7.978338e-01 
7.762712e-01 
7.552564e-01 
7.348275e-01 
7.150249e-01 
6.958920e-01 
6.774750e-01 
6.598230e-01 
6.429880e-01 
6.270251e-01 
6.119924e-01 
5.979506e-01 
5.849619e-01 
5.730896e-01 
5.623965e-01 
5.529444e-01 
5.447920e-01 
5.379920e-01 
5.325877e-01 
5.286046e-01 
5.260443e-01 
5.253696e-01 
5.273252e-01 
5.309996e-01 
5.362201e-01 
5.428922e-01 
5.509430e-01 
5.603055e-01 
5.709125e-01 
5.826976e-01 
5.955976e-01 
6.095502e-01 
6.244946e-01 
6.403714e-01 
6.571226e-01 
6.746938e-01 
6.930337e-01 
7.120939e-01 
7.318287e-01 
7.521952e-01 
7.731533e-01 
7.946652e-01 
8.166960e-01 
8.392126e-01 
8.621847e-01 
8.855837e-01 
9.093832e-01 
9.335585e-01 
9.580867e-01 
9.829465e-01 
1.008118e+00 
1.033583e+00 
1.059324e+00 
1.085325e+00 
1.111571e+00 
1.138048e+00 
1.164744e+00 
1.191646e+00 
1.218742e+00 
1.246023e+00 
8.675392e-01 
8.436595e-01 
8.201801e-01 
7.971414e-01 
7.745715e-01 
7.525040e-01 
7.309751e-01 
7.100240e-01 
6.896926e-01 
6.700261e-01 
6.510729e-01 
6.328848e-01 
6.155168e-01 
5.990276e-01 
5.834794e-01 
5.689379e-01 
5.554711e-01 
5.431481e-01 
5.320386e-01 
5.222110e-01 
5.137311e-01 
5.066586e-01 
5.010424e-01 
4.969130e-01 
4.942773e-01 
4.936340e-01 
4.957114e-01 
4.995608e-01 
5.050119e-01 
5.119680e-01 
5.203518e-01 
5.300907e-01 
5.411119e-01 
5.533432e-01 
5.667152e-01 
5.811599e-01 
5.966112e-01 
6.130057e-01 
6.302813e-01 
6.483799e-01 
6.672471e-01 
6.868319e-01 
7.070867e-01 
7.279668e-01 
7.494306e-01 
7.714394e-01 
7.939571e-01 
8.169502e-01 
8.403877e-01 
8.642408e-01 
8.884829e-01 
9.130890e-01 
9.380364e-01 
9.633037e-01 
9.888712e-01 
1.014721e+00 
1.040835e+00 
1.067199e+00 
1.093797e+00 
1.120615e+00 
1.147643e+00 
1.174866e+00 
1.202275e+00 
1.229859e+00 
8.467216e-01 
8.223734e-01 
7.984122e-01 
7.748794e-01 
7.518031e-01 
7.292171e-01 
7.071586e-01 
6.856677e-01 
6.647878e-01 
6.445658e-01 
6.250524e-01 
6.063021e-01 
5.883732e-01 
5.713278e-01 
5.552328e-01 
5.401590e-01 
5.261806e-01 
5.133735e-01 
5.018147e-01 
4.915806e-01 
4.827451e-01 
4.753758e-01 
4.695289e-01 
4.652403e-01 
4.625190e-01 
4.619003e-01 
4.640946e-01 
4.681269e-01 
4.738239e-01 
4.810851e-01 
4.898272e-01 
4.999711e-01 
5.114369e-01 
5.241455e-01 
5.380207e-01 
5.529881e-01 
5.689761e-01 
5.859165e-01 
6.037428e-01 
6.223931e-01 
6.418101e-01 
6.619402e-01 
6.827337e-01 
7.041441e-01 
7.261286e-01 
7.486473e-01 
7.716634e-01 
7.951428e-01 
8.190543e-01 
8.433686e-01 
8.680590e-01 
8.931008e-01 
9.184710e-01 
9.441486e-01 
9.701141e-01 
9.963494e-01 
1.022838e+00 
1.049564e+00 
1.076513e+00 
1.103672e+00 
1.131029e+00 
1.158572e+00 
1.186291e+00 
1.214175e+00 
8.264650e-01 
8.016386e-01 
7.771872e-01 
7.531493e-01 
7.295534e-01 
7.064340e-01 
6.838286e-01 
6.617784e-01 
6.403280e-01 
6.195262e-01 
5.994259e-01 
5.800843e-01 
5.615631e-01 
5.439287e-01 
5.272523e-01 
5.116103e-01 
4.970833e-01 
4.837548e-01 
4.717103e-01 
4.610354e-01 
4.518130e-01 
4.441205e-01 
4.380225e-01 
4.335614e-01 
4.307507e-01 
4.301614e-01 
4.324872e-01 
4.367196e-01 
4.426854e-01 
4.502794e-01 
4.594116e-01 
4.699947e-01 
4.819402e-01 
4.951609e-01 
5.095730e-01 
5.250958e-01 
5.416515e-01 
5.591665e-01 
5.775701e-01 
5.967964e-01 
6.167850e-01 
6.374797e-01 
6.588288e-01 
6.807841e-01 
7.033017e-01 
7.263407e-01 
7.498636e-01 
7.738361e-01 
7.982264e-01 
8.230054e-01 
8.481463e-01 
8.736244e-01 
8.994173e-01 
9.255038e-01 
9.518650e-01 
9.784829e-01 
1.005341e+00 
1.032425e+00 
1.059721e+00 
1.087215e+00 
1.114895e+00 
1.142751e+00 
1.170772e+00 
1.198949e+00 
8.068011e-01 
7.814933e-01 
7.565447e-01 
7.319931e-01 
7.078673e-01 
6.842017e-01 
6.610345e-01 
6.384075e-01 
6.163665e-01 
5.949619e-01 
5.742487e-01 
5.542870e-01 
5.351420e-01 
5.168844e-01 
4.995901e-01 
4.833410e-01 
4.682248e-01 
4.543337e-01 
4.417626e-01 
4.306074e-01 
4.209623e-01 
4.129156e-01 
4.065423e-01 
4.018925e-01 
3.989843e-01 
3.984237e-01 
4.008878e-01 
4.053358e-01 
4.115934e-01 
4.195496e-01 
4.291057e-01 
4.401647e-01 
4.526286e-01 
4.664009e-01 
4.813892e-01 
4.975051e-01 
5.146644e-01 
5.327875e-01 
5.517994e-01 
5.716302e-01 
5.922160e-01 
6.134985e-01 
6.354236e-01 
6.579422e-01 
6.810088e-01 
7.045820e-01 
7.286238e-01 
7.530995e-01 
7.779773e-01 
8.032282e-01 
8.288254e-01 
8.547447e-01 
8.809637e-01 
9.074620e-01 
9.342206e-01 
9.612224e-01 
9.884514e-01 
1.015893e+00 
1.043534e+00 
1.071361e+00 
1.099364e+00 
1.127531e+00 
1.155854e+00 
1.184321e+00 
7.877726e-01 
7.619794e-01 
7.365283e-01 
7.114558e-01 
6.867906e-01 
6.625673e-01 
6.388241e-01 
6.156033e-01 
5.929518e-01 
5.709213e-01 
5.495689e-01 
5.289572e-01 
5.091551e-01 
4.902374e-01 
4.722853e-01 
4.553869e-01 
4.396371e-01 
4.251374e-01 
4.119937e-01 
4.003138e-01 
3.902048e-01 
3.817684e-01 
3.750919e-01 
3.702347e-01 
3.672199e-01 
3.666872e-01 
3.692974e-01 
3.739788e-01 
3.805548e-01 
3.889068e-01 
3.989254e-01 
4.105020e-01 
4.235272e-01 
4.378937e-01 
4.534997e-01 
4.702482e-01 
4.880477e-01 
5.068128e-01 
5.264635e-01 
5.469261e-01 
5.681335e-01 
5.900250e-01 
6.125448e-01 
6.356424e-01 
6.592714e-01 
6.833900e-01 
7.079599e-01 
7.329461e-01 
7.583172e-01 
7.840441e-01 
8.101006e-01 
8.364629e-01 
8.631089e-01 
8.900187e-01 
9.171740e-01 
9.445580e-01 
9.721554e-01 
9.999522e-01 
1.027935e+00 
1.056093e+00 
1.084414e+00 
1.112889e+00 
1.141507e+00 
1.170261e+00 
7.694199e-01 
7.431392e-01 
7.171817e-01 
6.915826e-01 
6.663703e-01 
6.415789e-01 
6.172467e-01 
5.934163e-01 
5.701352e-01 
5.474563e-01 
5.254384e-01 
5.041466e-01 
4.836528e-01 
4.640362e-01 
4.453837e-01 
4.277898e-01 
4.113576e-01 
3.961984e-01 
3.824304e-01 
3.701750e-01 
3.595549e-01 
3.506875e-01 
3.436754e-01 
3.385893e-01 
3.354572e-01 
3.349516e-01 
3.377168e-01 
3.426525e-01 
3.495781e-01 
3.583647e-01 
3.688900e-01 
3.810315e-01 
3.946659e-01 
4.096741e-01 
4.259430e-01 
4.433665e-01 
4.618454e-01 
4.812878e-01 
5.016089e-01 
5.227309e-01 
5.445841e-01 
5.671052e-01 
5.902373e-01 
6.139285e-01 
6.381320e-01 
6.628056e-01 
6.879109e-01 
7.134134e-01 
7.392815e-01 
7.654869e-01 
7.920038e-01 
8.188089e-01 
8.458809e-01 
8.732004e-01 
9.007498e-01 
9.285129e-01 
9.564750e-01 
9.846227e-01 
1.012944e+00 
1.041427e+00 
1.070061e+00 
1.098837e+00 
1.127747e+00 
1.156781e+00 
7.517858e-01 
7.250176e-01 
6.985519e-01 
6.724224e-01 
6.466570e-01 
6.212891e-01 
5.963567e-01 
5.719023e-01 
5.479738e-01 
5.246248e-01 
5.019155e-01 
4.799132e-01 
4.586927e-01 
4.383372e-01 
4.189388e-01 
4.005994e-01 
3.834308e-01 
3.675554e-01 
3.531047e-01 
3.402160e-01 
3.290300e-01 
3.196836e-01 
3.122980e-01 
3.069580e-01 
3.036965e-01 
3.032167e-01 
3.061473e-01 
3.113618e-01 
3.186734e-01 
3.279400e-01 
3.390231e-01 
3.517830e-01 
3.660808e-01 
3.817830e-01 
3.987644e-01 
4.169086e-01 
4.361080e-01 
4.562645e-01 
4.772881e-01 
4.990974e-01 
5.216199e-01 
5.447906e-01 
5.685512e-01 
5.928492e-01 
6.176376e-01 
6.428741e-01 
6.685206e-01 
6.945429e-01 
7.209103e-01 
7.475948e-01 
7.745716e-01 
8.018179e-01 
8.293133e-01 
8.570392e-01 
8.849786e-01 
9.131162e-01 
9.414380e-01 
9.699313e-01 
9.985843e-01 
1.027386e+00 
1.056328e+00 
1.085399e+00 
1.114593e+00 
1.143901e+00 
7.349159e-01 
7.076622e-01 
6.806887e-01 
6.540275e-01 
6.277053e-01 
6.017548e-01 
5.762131e-01 
5.511224e-01 
5.265305e-01 
5.024913e-01 
4.790660e-01 
4.563233e-01 
4.343407e-01 
4.132050e-01 
3.930134e-01 
3.738750e-01 
3.559112e-01 
3.392567e-01 
3.240574e-01 
3.104690e-01 
2.986535e-01 
2.887714e-01 
2.809675e-01 
2.753442e-01 
2.719395e-01 
2.714839e-01 
2.745918e-01 
2.801144e-01 
2.878548e-01 
2.976541e-01 
3.093536e-01 
3.227932e-01 
3.378150e-01 
3.542692e-01 
3.720169e-01 
3.909306e-01 
4.108940e-01 
4.318023e-01 
4.535606e-01 
4.760845e-01 
4.992989e-01 
5.231376e-01 
5.475414e-01 
5.724576e-01 
5.978392e-01 
6.236444e-01 
6.498358e-01 
6.763798e-01 
7.032466e-01 
7.304091e-01 
7.578434e-01 
7.855276e-01 
8.134421e-01 
8.415692e-01 
8.698930e-01 
8.983989e-01 
9.270737e-01 
9.559055e-01 
9.848833e-01 
1.013997e+00 
1.043238e+00 
1.072597e+00 
1.102067e+00 
1.131641e+00 
7.188604e-01 
6.911257e-01 
6.636479e-01 
6.364562e-01 
6.095765e-01 
5.830402e-01 
5.568832e-01 
5.311469e-01 
5.058782e-01 
4.811312e-01 
4.569671e-01 
4.334556e-01 
4.106760e-01 
3.887182e-01 
3.676846e-01 
3.476910e-01 
3.288688e-01 
3.113649e-01 
2.953420e-01 
2.809769e-01 
2.684568e-01 
2.579718e-01 
2.496960e-01 
2.437541e-01 
2.401899e-01 
2.397562e-01 
2.430548e-01 
2.489200e-01 
2.571397e-01 
2.675335e-01 
2.799174e-01 
2.941063e-01 
3.099201e-01 
3.271902e-01 
3.457625e-01 
3.654973e-01 
3.862694e-01 
4.079675e-01 
4.304925e-01 
4.537569e-01 
4.776841e-01 
5.022070e-01 
5.272662e-01 
5.528094e-01 
5.787901e-01 
6.051673e-01 
6.319046e-01 
6.589695e-01 
6.863332e-01 
7.139700e-01 
7.418567e-01 
7.699727e-01 
7.982996e-01 
8.268207e-01 
8.555210e-01 
8.843869e-01 
9.134061e-01 
9.425676e-01 
9.718613e-01 
1.001278e+00 
1.030809e+00 
1.060447e+00 
1.090184e+00 
1.120015e+00 
7.036489e-01 
6.754423e-01 
6.474670e-01 
6.197508e-01 
5.923177e-01 
5.651975e-01 
5.384245e-01 
5.120383e-01 
4.860851e-01 
4.606174e-01 
4.356963e-01 
4.113913e-01 
3.877827e-01 
3.649630e-01 
3.430384e-01 
3.221315e-01 
3.023825e-01 
2.839518e-01 
2.670204e-01 
2.517892e-01 
2.384761e-01 
2.273072e-01 
2.184946e-01 
2.121925e-01 
2.084457e-01 
2.080272e-01 
2.115251e-01 
2.177730e-01 
2.265324e-01 
2.375945e-01 
2.507436e-01 
2.657632e-01 
2.824467e-01 
3.006042e-01 
3.200645e-01 
3.406753e-01 
3.623028e-01 
3.848294e-01 
4.081522e-01 
4.321819e-01 
4.568410e-01 
4.820623e-01 
5.077868e-01 
5.339630e-01 
5.605458e-01 
5.874953e-01 
6.147766e-01 
6.423585e-01 
6.702137e-01 
6.983178e-01 
7.266492e-01 
7.551885e-01 
7.839185e-01 
8.128237e-01 
8.418903e-01 
8.711057e-01 
9.004587e-01 
9.299391e-01 
9.595376e-01 
9.892460e-01 
1.019056e+00 
1.048962e+00 
1.078956e+00 
1.109034e+00 
6.893681e-01 
6.606991e-01 
6.322356e-01 
6.040023e-01 
5.760214e-01 
5.483205e-01 
5.209319e-01 
4.938934e-01 
4.672488e-01 
4.410493e-01 
4.153540e-01 
3.902315e-01 
3.657620e-01 
3.420386e-01 
3.191706e-01 
2.972856e-01 
2.765330e-01 
2.570867e-01 
2.391477e-01 
2.229449e-01 
2.087329e-01 
1.967824e-01 
1.873544e-01 
1.806418e-01 
1.766936e-01 
1.762922e-01 
1.800147e-01 
1.867012e-01 
1.960771e-01 
2.078987e-01 
2.219096e-01 
2.378547e-01 
2.554953e-01 
2.746168e-01 
2.950302e-01 
3.165711e-01 
3.390973e-01 
3.624865e-01 
3.866328e-01 
4.114464e-01 
4.368500e-01 
4.627771e-01 
4.891700e-01 
5.159788e-01 
5.431601e-01 
5.706758e-01 
5.984928e-01 
6.265819e-01 
6.549174e-01 
6.834766e-01 
7.122394e-01 
7.411881e-01 
7.703068e-01 
7.995813e-01 
8.289991e-01 
8.585487e-01 
8.882200e-01 
9.180038e-01 
9.478917e-01 
9.778762e-01 
1.007951e+00 
1.038109e+00 
1.068344e+00 
1.098653e+00 
6.760497e-01 
6.469342e-01 
6.179963e-01 
5.892586e-01 
5.607414e-01 
5.324696e-01 
5.044731e-01 
4.767868e-01 
4.494519e-01 
4.225168e-01 
3.960378e-01 
3.700812e-01 
3.447253e-01 
3.200626e-01 
2.962032e-01 
2.732783e-01 
2.514447e-01 
2.308892e-01 
2.118336e-01 
1.945378e-01 
1.793001e-01 
1.664473e-01 
1.563053e-01 
1.491199e-01 
1.449433e-01 
1.445564e-01 
1.485253e-01 
1.557159e-01 
1.658002e-01 
1.784906e-01 
1.934773e-01 
2.104567e-01 
2.291524e-01 
2.493228e-01 
2.707603e-01 
2.932889e-01 
3.167596e-01 
3.410464e-01 
3.660428e-01 
3.916592e-01 
4.178198e-01 
4.444599e-01 
4.715241e-01 
4.989649e-01 
5.267412e-01 
5.548174e-01 
5.831628e-01 
6.117502e-01 
6.405562e-01 
6.695599e-01 
6.987432e-01 
7.280898e-01 
7.575855e-01 
7.872176e-01 
8.169747e-01 
8.468468e-01 
8.768247e-01 
9.069004e-01 
9.370663e-01 
9.673160e-01 
9.976434e-01 
1.028043e+00 
1.058510e+00 
1.089039e+00 
6.637555e-01 
6.342128e-01 
6.048191e-01 
5.755949e-01 
5.465582e-01 
5.177313e-01 
4.891408e-01 
4.608184e-01 
4.328017e-01 
4.051350e-01 
3.778707e-01 
3.510712e-01 
3.248110e-01 
2.991796e-01 
2.742856e-01 
2.502611e-01 
2.272674e-01 
2.055020e-01 
1.852067e-01 
1.666748e-01 
1.502558e-01 
1.363491e-01 
1.253682e-01 
1.176321e-01 
1.131945e-01 
1.128196e-01 
1.170606e-01 
1.248385e-01 
1.357455e-01 
1.494395e-01 
1.655391e-01 
1.836790e-01 
2.035387e-01 
2.248473e-01 
2.473799e-01 
2.709505e-01 
2.954057e-01 
3.206180e-01 
3.464825e-01 
3.729118e-01 
3.998331e-01 
4.271847e-01 
4.549147e-01 
4.829787e-01 
5.113389e-01 
5.399627e-01 
5.688219e-01 
5.978923e-01 
6.271526e-01 
6.565843e-01 
6.861712e-01 
7.158989e-01 
7.457548e-01 
7.757278e-01 
8.058080e-01 
8.359864e-01 
8.662552e-01 
8.966073e-01 
9.270364e-01 
9.575366e-01 
9.881029e-01 
1.018730e+00 
1.049415e+00 
1.080153e+00 
6.525402e-01 
6.225949e-01 
5.927694e-01 
5.630823e-01 
5.335496e-01 
5.041905e-01 
4.750279e-01 
4.460896e-01 
4.174086e-01 
3.890243e-01 
3.609838e-01 
3.333435e-01 
3.061720e-01 
2.795534e-01 
2.535911e-01 
2.284141e-01 
2.041838e-01 
1.811042e-01 
1.594336e-01 
1.394985e-01 
1.217074e-01 
1.065530e-01 
9.457114e-02 
8.618543e-02 
8.144731e-02 
8.108143e-02 
8.562494e-02 
9.409815e-02 
1.059723e-01 
1.208399e-01 
1.382188e-01 
1.576648e-01 
1.788072e-01 
2.013465e-01 
2.250427e-01 
2.497038e-01 
2.751754e-01 
3.013326e-01 
3.280743e-01 
3.553177e-01 
3.829946e-01 
4.110480e-01 
4.394305e-01 
4.681018e-01 
4.970281e-01 
5.261802e-01 
5.555333e-01 
5.850660e-01 
6.147598e-01 
6.445986e-01 
6.745682e-01 
7.046564e-01 
7.348523e-01 
7.651463e-01 
7.955300e-01 
8.259958e-01 
8.565371e-01 
8.871478e-01 
9.178226e-01 
9.485566e-01 
9.793454e-01 
1.010185e+00 
1.041072e+00 
1.072003e+00 
6.424560e-01 
6.121375e-01 
5.819107e-01 
5.517922e-01 
5.217952e-01 
4.919355e-01 
4.622320e-01 
4.327081e-01 
4.033918e-01 
3.743164e-01 
3.455221e-01 
3.170579e-01 
2.889840e-01 
2.613756e-01 
2.343270e-01 
2.079584e-01 
1.824251e-01 
1.579295e-01 
1.347385e-01 
1.132072e-01 
9.380749e-02 
7.715063e-02 
6.395297e-02 
5.478849e-02 
4.970182e-02 
4.934126e-02 
5.422344e-02 
6.353589e-02 
7.656304e-02 
9.282385e-02 
1.116852e-01 
1.326030e-01 
1.551537e-01 
1.790132e-01 
2.039334e-01 
2.297224e-01 
2.562302e-01 
2.833388e-01 
3.109544e-01 
3.390012e-01 
3.674177e-01 
3.961531e-01 
4.251656e-01 
4.544201e-01 
4.838871e-01 
5.135417e-01 
5.433626e-01 
5.733317e-01 
6.034333e-01 
6.336538e-01 
6.639815e-01 
6.944060e-01 
7.249184e-01 
7.555106e-01 
7.861758e-01 
8.169077e-01 
8.477008e-01 
8.785502e-01 
9.094514e-01 
9.404006e-01 
9.713942e-01 
1.002429e+00 
1.033502e+00 
1.064610e+00 
6.335564e-01 
6.028977e-01 
5.723051e-01 
5.417930e-01 
5.113715e-01 
4.810526e-01 
4.508511e-01 
4.207851e-01 
3.908766e-01 
3.611522e-01 
3.316441e-01 
3.023922e-01 
2.734463e-01 
2.448689e-01 
2.167406e-01 