# vtk DataFile Version 2.0 
Quadtree Mesh 
ASCII 
DATASET UNSTRUCTURED_GRID 
POINTS 4096 double 
-1.000000e+00 -1.000000e+00 0.000000e+00
-9.682540e-01 -1.000000e+00 0.000000e+00
-9.365079e-01 -1.000000e+00 0.000000e+00
-9.047619e-01 -1.000000e+00 0.000000e+00
-8.730159e-01 -1.000000e+00 0.000000e+00
-8.412698e-01 -1.000000e+00 0.000000e+00
-8.095238e-01 -1.000000e+00 0.000000e+00
-7.777778e-01 -1.000000e+00 0.000000e+00
-7.460317e-01 -1.000000e+00 0.000000e+00
-7.142857e-01 -1.000000e+00 0.000000e+00
-6.825397e-01 -1.000000e+00 0.000000e+00
-6.507937e-01 -1.000000e+00 0.000000e+00
-6.190476e-01 -1.000000e+00 0.000000e+00
-5.873016e-01 -1.000000e+00 0.000000e+00
-5.555556e-01 -1.000000e+00 0.000000e+00
-5.238095e-01 -1.000000e+00 0.000000e+00
-4.920635e-01 -1.000000e+00 0.000000e+00
-4.603175e-01 -1.000000e+00 0.000000e+00
-4.285714e-01 -1.000000e+00 0.000000e+00
-3.968254e-01 -1.000000e+00 0.000000e+00
-3.650794e-01 -1.000000e+00 0.000000e+00
-3.333333e-01 -1.000000e+00 0.000000e+00
-3.015873e-01 -1.000000e+00 0.000000e+00
-2.698413e-01 -1.000000e+00 0.000000e+00
-2.380952e-01 -1.000000e+00 0.000000e+00
-2.063492e-01 -1.000000e+00 0.000000e+00
-1.746032e-01 -1.000000e+00 0.000000e+00
-1.428571e-01 -1.000000e+00 0.000000e+00
-1.111111e-01 -1.000000e+00 0.000000e+00
-7.936508e-02 -1.000000e+00 0.000000e+00
-4.761905e-02 -1.000000e+00 0.000000e+00
-1.587302e-02 -1.000000e+00 0.000000e+00
1.587302e-02 -1.000000e+00 0.000000e+00
4.761905e-02 -1.000000e+00 0.000000e+00
7.936508e-02 -1.000000e+00 0.000000e+00
1.111111e-01 -1.000000e+00 0.000000e+00
1.428571e-01 -1.000000e+00 0.000000e+00
1.746032e-01 -1.000000e+00 0.000000e+00
2.063492e-01 -1.000000e+00 0.000000e+00
2.380952e-01 -1.000000e+00 0.000000e+00
2.698413e-01 -1.000000e+00 0.000000e+00
3.015873e-01 -1.000000e+00 0.000000e+00
3.333333e-01 -1.000000e+00 0.000000e+00
3.650794e-01 -1.000000e+00 0.000000e+00
3.968254e-01 -1.000000e+00 0.000000e+00
4.285714e-01 -1.000000e+00 0.000000e+00
4.603175e-01 -1.000000e+00 0.000000e+00
4.920635e-01 -1.000000e+00 0.000000e+00
5.238095e-01 -1.000000e+00 0.000000e+00
5.555556e-01 -1.000000e+00 0.000000e+00
5.873016e-01 -1.000000e+00 0.000000e+00
6.190476e-01 -1.000000e+00 0.000000e+00
6.507937e-01 -1.000000e+00 0.000000e+00
6.825397e-01 -1.000000e+00 0.000000e+00
7.142857e-01 -1.000000e+00 0.000000e+00
7.460317e-01 -1.000000e+00 0.000000e+00
7.777778e-01 -1.000000e+00 0.000000e+00
8.095238e-01 -1.000000e+00 0.000000e+00
8.412698e-01 -1.000000e+00 0.000000e+00
8.730159e-01 -1.000000e+00 0.000000e+00
9.047619e-01 -1.000000e+00 0.000000e+00
9.365079e-01 -1.000000e+00 0.000000e+00
9.682540e-01 -1.000000e+00 0.000000e+00
1.000000e+00 -1.000000e+00 0.000000e+00
-1.000000e+00 -9.682540e-01 0.000000e+00
-9.682540e-01 -9.682540e-01 0.000000e+00
-9.365079e-01 -9.682540e-01 0.000000e+00
-9.047619e-01 -9.682540e-01 0.000000e+00
-8.730159e-01 -9.682540e-01 0.000000e+00
-8.412698e-01 -9.682540e-01 0.000000e+00
-8.095238e-01 -9.682540e-01 0.000000e+00
-7.777778e-01 -9.682540e-01 0.000000e+00
-7.460317e-01 -9.682540e-01 0.000000e+00
-7.142857e-01 -9.682540e-01 0.000000e+00
-6.825397e-01 -9.682540e-01 0.000000e+00
-6.507937e-01 -9.682540e-01 0.000000e+00
-6.190476e-01 -9.682540e-01 0.000000e+00
-5.873016e-01 -9.682540e-01 0.000000e+00
-5.555556e-01 -9.682540e-01 0.000000e+00
-5.238095e-01 -9.682540e-01 0.000000e+00
-4.920635e-01 -9.682540e-01 0.000000e+00
-4.603175e-01 -9.682540e-01 0.000000e+00
-4.285714e-01 -9.682540e-01 0.000000e+00
-3.968254e-01 -9.682540e-01 0.000000e+00
-3.650794e-01 -9.682540e-01 0.000000e+00
-3.333333e-01 -9.682540e-01 0.000000e+00
-3.015873e-01 -9.682540e-01 0.000000e+00
-2.698413e-01 -9.682540e-01 0.000000e+00
-2.380952e-01 -9.682540e-01 0.000000e+00
-2.063492e-01 -9.682540e-01 0.000000e+00
-1.746032e-01 -9.682540e-01 0.000000e+00
-1.428571e-01 -9.682540e-01 0.000000e+00
-1.111111e-01 -9.682540e-01 0.000000e+00
-7.936508e-02 -9.682540e-01 0.000000e+00
-4.761905e-02 -9.682540e-01 0.000000e+00
-1.587302e-02 -9.682540e-01 0.000000e+00
1.587302e-02 -9.682540e-01 0.000000e+00
4.761905e-02 -9.682540e-01 0.000000e+00
7.936508e-02 -9.682540e-01 0.000000e+00
1.111111e-01 -9.682540e-01 0.000000e+00
1.428571e-01 -9.682540e-01 0.000000e+00
1.746032e-01 -9.682540e-01 0.000000e+00
2.063492e-01 -9.682540e-01 0.000000e+00
2.380952e-01 -9.682540e-01 0.000000e+00
2.698413e-01 -9.682540e-01 0.000000e+00
3.015873e-01 -9.682540e-01 0.000000e+00
3.333333e-01 -9.682540e-01 0.000000e+00
3.650794e-01 -9.682540e-01 0.000000e+00
3.968254e-01 -9.682540e-01 0.000000e+00
4.285714e-01 -9.682540e-01 0.000000e+00
4.603175e-01 -9.682540e-01 0.000000e+00
4.920635e-01 -9.682540e-01 0.000000e+00
5.238095e-01 -9.682540e-01 0.000000e+00
5.555556e-01 -9.682540e-01 0.000000e+00
5.873016e-01 -9.682540e-01 0.000000e+00
6.190476e-01 -9.682540e-01 0.000000e+00
6.507937e-01 -9.682540e-01 0.000000e+00
6.825397e-01 -9.682540e-01 0.000000e+00
7.142857e-01 -9.682540e-01 0.000000e+00
7.460317e-01 -9.682540e-01 0.000000e+00
7.777778e-01 -9.682540e-01 0.000000e+00
8.095238e-01 -9.682540e-01 0.000000e+00
8.412698e-01 -9.682540e-01 0.000000e+00
8.730159e-01 -9.682540e-01 0.000000e+00
9.047619e-01 -9.682540e-01 0.000000e+00
9.365079e-01 -9.682540e-01 0.000000e+00
9.682540e-01 -9.682540e-01 0.000000e+00
1.000000e+00 -9.682540e-01 0.000000e+00
-1.000000e+00 -9.365079e-01 0.000000e+00
-9.682540e-01 -9.365079e-01 0.000000e+00
-9.365079e-01 -9.365079e-01 0.000000e+00
-9.047619e-01 -9.365079e-01 0.000000e+00
-8.730159e-01 -9.365079e-01 0.000000e+00
-8.412698e-01 -9.365079e-01 0.000000e+00
-8.095238e-01 -9.365079e-01 0.000000e+00
-7.777778e-01 -9.365079e-01 0.000000e+00
-7.460317e-01 -9.365079e-01 0.000000e+00
-7.142857e-01 -9.365079e-01 0.000000e+00
-6.825397e-01 -9.365079e-01 0.000000e+00
-6.507937e-01 -9.365079e-01 0.000000e+00
-6.190476e-01 -9.365079e-01 0.000000e+00
-5.873016e-01 -9.365079e-01 0.000000e+00
-5.555556e-01 -9.365079e-01 0.000000e+00
-5.238095e-01 -9.365079e-01 0.000000e+00
-4.920635e-01 -9.365079e-01 0.000000e+00
-4.603175e-01 -9.365079e-01 0.000000e+00
-4.285714e-01 -9.365079e-01 0.000000e+00
-3.968254e-01 -9.365079e-01 0.000000e+00
-3.650794e-01 -9.365079e-01 0.000000e+00
-3.333333e-01 -9.365079e-01 0.000000e+00
-3.015873e-01 -9.365079e-01 0.000000e+00
-2.698413e-01 -9.365079e-01 0.000000e+00
-2.380952e-01 -9.365079e-01 0.000000e+00
-2.063492e-01 -9.365079e-01 0.000000e+00
-1.746032e-01 -9.365079e-01 0.000000e+00
-1.428571e-01 -9.365079e-01 0.000000e+00
-1.111111e-01 -9.365079e-01 0.000000e+00
-7.936508e-02 -9.365079e-01 0.000000e+00
-4.761905e-02 -9.365079e-01 0.000000e+00
-1.587302e-02 -9.365079e-01 0.000000e+00
1.587302e-02 -9.365079e-01 0.000000e+00
4.761905e-02 -9.365079e-01 0.000000e+00
7.936508e-02 -9.365079e-01 0.000000e+00
1.111111e-01 -9.365079e-01 0.000000e+00
1.428571e-01 -9.365079e-01 0.000000e+00
1.746032e-01 -9.365079e-01 0.000000e+00
2.063492e-01 -9.365079e-01 0.000000e+00
2.380952e-01 -9.365079e-01 0.000000e+00
2.698413e-01 -9.365079e-01 0.000000e+00
3.015873e-01 -9.365079e-01 0.000000e+00
3.333333e-01 -9.365079e-01 0.000000e+00
3.650794e-01 -9.365079e-01 0.000000e+00
3.968254e-01 -9.365079e-01 0.000000e+00
4.285714e-01 -9.365079e-01 0.000000e+00
4.603175e-01 -9.365079e-01 0.000000e+00
4.920635e-01 -9.365079e-01 0.000000e+00
5.238095e-01 -9.365079e-01 0.000000e+00
5.555556e-01 -9.365079e-01 0.000000e+00
5.873016e-01 -9.365079e-01 0.000000e+00
6.190476e-01 -9.365079e-01 0.000000e+00
6.507937e-01 -9.365079e-01 0.000000e+00
6.825397e-01 -9.365079e-01 0.000000e+00
7.142857e-01 -9.365079e-01 0.000000e+00
7.460317e-01 -9.365079e-01 0.000000e+00
7.777778e-01 -9.365079e-01 0.000000e+00
8.095238e-01 -9.365079e-01 0.000000e+00
8.412698e-01 -9.365079e-01 0.000000e+00
8.730159e-01 -9.365079e-01 0.000000e+00
9.047619e-01 -9.365079e-01 0.000000e+00
9.365079e-01 -9.365079e-01 0.000000e+00
9.682540e-01 -9.365079e-01 0.000000e+00
1.000000e+00 -9.365079e-01 0.000000e+00
-1.000000e+00 -9.047619e-01 0.000000e+00
-9.682540e-01 -9.047619e-01 0.000000e+00
-9.365079e-01 -9.047619e-01 0.000000e+00
-9.047619e-01 -9.047619e-01 0.000000e+00
-8.730159e-01 -9.047619e-01 0.000000e+00
-8.412698e-01 -9.047619e-01 0.000000e+00
-8.095238e-01 -9.047619e-01 0.000000e+00
-7.777778e-01 -9.047619e-01 0.000000e+00
-7.460317e-01 -9.047619e-01 0.000000e+00
-7.142857e-01 -9.047619e-01 0.000000e+00
-6.825397e-01 -9.047619e-01 0.000000e+00
-6.507937e-01 -9.047619e-01 0.000000e+00
-6.190476e-01 -9.047619e-01 0.000000e+00
-5.873016e-01 -9.047619e-01 0.000000e+00
-5.555556e-01 -9.047619e-01 0.000000e+00
-5.238095e-01 -9.047619e-01 0.000000e+00
-4.920635e-01 -9.047619e-01 0.000000e+00
-4.603175e-01 -9.047619e-01 0.000000e+00
-4.285714e-01 -9.047619e-01 0.000000e+00
-3.968254e-01 -9.047619e-01 0.000000e+00
-3.650794e-01 -9.047619e-01 0.000000e+00
-3.333333e-01 -9.047619e-01 0.000000e+00
-3.015873e-01 -9.047619e-01 0.000000e+00
-2.698413e-01 -9.047619e-01 0.000000e+00
-2.380952e-01 -9.047619e-01 0.000000e+00
-2.063492e-01 -9.047619e-01 0.000000e+00
-1.746032e-01 -9.047619e-01 0.000000e+00
-1.428571e-01 -9.047619e-01 0.000000e+00
-1.111111e-01 -9.047619e-01 0.000000e+00
-7.936508e-02 -9.047619e-01 0.000000e+00
-4.761905e-02 -9.047619e-01 0.000000e+00
-1.587302e-02 -9.047619e-01 0.000000e+00
1.587302e-02 -9.047619e-01 0.000000e+00
4.761905e-02 -9.047619e-01 0.000000e+00
7.936508e-02 -9.047619e-01 0.000000e+00
1.111111e-01 -9.047619e-01 0.000000e+00
1.428571e-01 -9.047619e-01 0.000000e+00
1.746032e-01 -9.047619e-01 0.000000e+00
2.063492e-01 -9.047619e-01 0.000000e+00
2.380952e-01 -9.047619e-01 0.000000e+00
2.698413e-01 -9.047619e-01 0.000000e+00
3.015873e-01 -9.047619e-01 0.000000e+00
3.333333e-01 -9.047619e-01 0.000000e+00
3.650794e-01 -9.047619e-01 0.000000e+00
3.968254e-01 -9.047619e-01 0.000000e+00
4.285714e-01 -9.047619e-01 0.000000e+00
4.603175e-01 -9.047619e-01 0.000000e+00
4.920635e-01 -9.047619e-01 0.000000e+00
5.238095e-01 -9.047619e-01 0.000000e+00
5.555556e-01 -9.047619e-01 0.000000e+00
5.873016e-01 -9.047619e-01 0.000000e+00
6.190476e-01 -9.047619e-01 0.000000e+00
[...]
POINT_DATA 4096 
SCALARS concentration double 1 
LOOKUP_TABLE default 
1.359521e+00 
1.340552e+00 
1.322011e+00 
1.303893e+00 
1.286209e+00 
1.268975e+00 
1.252207e+00 
1.235921e+00 
1.220134e+00 
1.204863e+00 
1.190126e+00 
1.175943e+00 
1.162334e+00 
1.149320e+00 
1.136919e+00 
1.125150e+00 
1.114033e+00 
1.103588e+00 
1.093832e+00 
1.084785e+00 
1.076465e+00 
1.068889e+00 
1.062074e+00 
1.056037e+00 
1.050793e+00 
1.046354e+00 
1.042735e+00 
1.039945e+00 
1.037992e+00 
1.036838e+00 
1.036696e+00 
1.037975e+00 
1.040447e+00 
1.043970e+00 
1.048461e+00 
1.053865e+00 
1.060143e+00 
1.067262e+00 
1.075196e+00 
1.083918e+00 
1.093406e+00 
1.103636e+00 
1.114585e+00 
1.126233e+00 
1.138556e+00 
1.151532e+00 
1.165141e+00 
1.179362e+00 
1.194175e+00 
1.209561e+00 
1.225501e+00 
1.241977e+00 
1.258969e+00 
1.276461e+00 
1.294432e+00 
1.312863e+00 
1.331738e+00 
1.351040e+00 
1.370750e+00 
1.390855e+00 
1.411339e+00 
1.432187e+00 
1.453385e+00 
1.474923e+00 
1.334071e+00 
1.314799e+00 
1.295955e+00 
1.277532e+00 
1.259545e+00 
1.242007e+00 
1.224937e+00 
1.208351e+00 
1.192267e+00 
1.176702e+00 
1.161676e+00 
1.147208e+00 
1.133321e+00 
1.120034e+00 
1.107368e+00 
1.095344e+00 
1.083981e+00 
1.073301e+00 
1.063323e+00 
1.054066e+00 
1.045552e+00 
1.037797e+00 
1.030821e+00 
1.024640e+00 
1.019270e+00 
1.014727e+00 
1.011023e+00 
1.008171e+00 
1.006178e+00 
1.005006e+00 
1.004905e+00 
1.006280e+00 
1.008862e+00 
1.012509e+00 
1.017139e+00 
1.022697e+00 
1.029146e+00 
1.036451e+00 
1.044587e+00 
1.053526e+00 
1.063244e+00 
1.073717e+00 
1.084921e+00 
1.096833e+00 
1.109429e+00 
1.122688e+00 
1.136586e+00 
1.151103e+00 
1.166218e+00 
1.181910e+00 
1.198161e+00 
1.214950e+00 
1.232259e+00 
1.250068e+00 
1.268355e+00 
1.287104e+00 
1.306294e+00 
1.325909e+00 
1.345933e+00 
1.366348e+00 
1.387140e+00 
1.408293e+00 
1.429794e+00 
1.451630e+00 
1.308853e+00 
1.289272e+00 
1.270116e+00 
1.251382e+00 
1.233082e+00 
1.215234e+00 
1.197853e+00 
1.180958e+00 
1.164567e+00 
1.148699e+00 
1.133373e+00 
1.118610e+00 
1.104433e+00 
1.090864e+00 
1.077923e+00 
1.065633e+00 
1.054014e+00 
1.043089e+00 
1.032878e+00 
1.023403e+00 
1.014685e+00 
1.006743e+00 
9.995964e-01 
9.932643e-01 
9.877637e-01 
9.831104e-01 
9.793187e-01 
9.764010e-01 
9.743651e-01 
9.731763e-01 
9.731211e-01 
9.745958e-01 
9.772914e-01 
9.810657e-01 
9.858388e-01 
9.915581e-01 
9.981842e-01 
1.005685e+00 
1.014031e+00 
1.023196e+00 
1.033154e+00 
1.043881e+00 
1.055350e+00 
1.067537e+00 
1.080418e+00 
1.093969e+00 
1.108167e+00 
1.122990e+00 
1.138416e+00 
1.154425e+00 
1.170995e+00 
1.188108e+00 
1.205740e+00 
1.223872e+00 
1.242483e+00 
1.261554e+00 
1.281065e+00 
1.300999e+00 
1.321339e+00 
1.342068e+00 
1.363171e+00 
1.384633e+00 
1.406438e+00 
1.428574e+00 
1.283879e+00 
1.263981e+00 
1.244507e+00 
1.225453e+00 
1.206833e+00 
1.188664e+00 
1.170963e+00 
1.153750e+00 
1.137043e+00 
1.120862e+00 
1.105226e+00 
1.090158e+00 
1.075681e+00 
1.061817e+00 
1.048590e+00 
1.036023e+00 
1.024137e+00 
1.012956e+00 
1.002503e+00 
9.927989e-01 
9.838671e-01 
9.757285e-01 
9.684040e-01 
9.619132e-01 
9.562748e-01 
9.515057e-01 
9.476213e-01 
9.446349e-01 
9.425546e-01 
9.413480e-01 
9.413467e-01 
9.429231e-01 
9.457341e-01 
9.496396e-01 
9.545615e-01 
9.604480e-01 
9.672598e-01 
9.749640e-01 
9.835310e-01 
9.929328e-01 
1.003142e+00 
1.014133e+00 
1.025878e+00 
1.038352e+00 
1.051529e+00 
1.065384e+00 
1.079894e+00 
1.095034e+00 
1.110784e+00 
1.127120e+00 
1.144021e+00 
1.161466e+00 
1.179431e+00 
1.197894e+00 
1.216836e+00 
1.236235e+00 
1.256074e+00 
1.276333e+00 
1.296995e+00 
1.318044e+00 
1.339463e+00 
1.361238e+00 
1.383352e+00 
1.405791e+00 
1.259161e+00 
1.238939e+00 
1.219140e+00 
1.199758e+00 
1.180810e+00 
1.162311e+00 
1.144282e+00 
1.126740e+00 
1.109707e+00 
1.093201e+00 
1.077245e+00 
1.061860e+00 
1.047072e+00 
1.032903e+00 
1.019379e+00 
1.006523e+00 
9.943582e-01 
9.829101e-01 
9.722024e-01 
9.622589e-01 
9.531032e-01 
9.447583e-01 
9.372465e-01 
9.305888e-01 
9.248053e-01 
9.199142e-01 
9.159323e-01 
9.128735e-01 
9.107469e-01 
9.095216e-01 
9.095825e-01 
9.112617e-01 
9.141903e-01 
9.182310e-01 
9.233074e-01 
9.293684e-01 
9.363745e-01 
9.442920e-01 
9.530902e-01 
9.627399e-01 
9.732122e-01 
9.844791e-01 
9.965127e-01 
1.009285e+00 
1.022771e+00 
1.036942e+00 
1.051775e+00 
1.067246e+00 
1.083330e+00 
1.100005e+00 
1.117247e+00 
1.135033e+00 
1.153339e+00 
1.172143e+00 
1.191424e+00 
1.211160e+00 
1.231333e+00 
1.251925e+00 
1.272916e+00 
1.294290e+00 
1.316030e+00 
1.338122e+00 
1.360549e+00 
1.383296e+00 
1.234716e+00 
1.214165e+00 
1.194031e+00 
1.174314e+00 
1.155028e+00 
1.136192e+00 
1.117823e+00 
1.099944e+00 
1.082573e+00 
1.065733e+00 
1.049445e+00 
1.033732e+00 
1.018620e+00 
1.004134e+00 
9.902996e-01 
9.771419e-01 
9.646864e-01 
9.529588e-01 
9.419847e-01 
9.317897e-01 
9.223989e-01 
9.138371e-01 
9.061279e-01 
8.992943e-01 
8.933578e-01 
8.883381e-01 
8.842531e-01 
8.811180e-01 
8.789427e-01 
8.776979e-01 
8.778295e-01 
8.796109e-01 
8.826593e-01 
8.868396e-01 
8.920769e-01 
8.983204e-01 
9.055301e-01 
9.136715e-01 
9.227124e-01 
9.326219e-01 
9.433696e-01 
9.549257e-01 
9.672605e-01 
9.803453e-01 
9.941518e-01 
1.008653e+00 
1.023823e+00 
1.039635e+00 
1.056066e+00 
1.073091e+00 
1.090684e+00 
1.108821e+00 
1.127477e+00 
1.146631e+00 
1.166259e+00 
1.186340e+00 
1.206856e+00 
1.227786e+00 
1.249112e+00 
1.270818e+00 
1.292885e+00 
1.315299e+00 
1.338043e+00 
1.361102e+00 
1.210568e+00 
1.189680e+00 
1.169205e+00 
1.149143e+00 
1.129510e+00 
1.110325e+00 
1.091608e+00 
1.073379e+00 
1.055660e+00 
1.038473e+00 
1.021840e+00 
1.005787e+00 
9.903383e-01 
9.755219e-01 
9.613640e-01 
9.478915e-01 
9.351314e-01 
9.231108e-01 
9.118572e-01 
9.013978e-01 
8.917596e-01 
8.829691e-01 
8.750518e-01 
8.680324e-01 
8.619341e-01 
8.567784e-01 
8.525845e-01 
8.493688e-01 
8.471422e-01 
8.458772e-01 
8.460867e-01 
8.479704e-01 
8.511414e-01 
8.554665e-01 
8.608718e-01 
8.673065e-01 
8.747301e-01 
8.831068e-01 
8.924027e-01 
9.025851e-01 
9.136216e-01 
9.254805e-01 
9.381306e-01 
9.515413e-01 
9.656832e-01 
9.805277e-01 
9.960471e-01 
1.012215e+00 
1.029005e+00 
1.046391e+00 
1.064345e+00 
1.082843e+00 
1.101860e+00 
1.121371e+00 
1.141355e+00 
1.161790e+00 
1.182655e+00 
1.203931e+00 
1.225600e+00 
1.247643e+00 
1.270043e+00 
1.292784e+00 
1.315849e+00 
1.339224e+00 
1.186733e+00 
1.165499e+00 
1.144674e+00 
1.124257e+00 
1.104268e+00 
1.084724e+00 
1.065646e+00 
1.047057e+00 
1.028977e+00 
1.011430e+00 
9.944404e-01 
9.780327e-01 
9.622340e-01 
9.470730e-01 
9.325775e-01 
9.187758e-01 
9.056965e-01 
8.933686e-01 
8.818213e-01 
8.710838e-01 
8.611849e-01 
8.521531e-01 
8.440160e-01 
8.368002e-01 
8.305308e-01 
8.252311e-01 
8.209220e-01 
8.176213e-01 
8.153407e-01 
8.140551e-01 
8.143527e-01 
8.163428e-01 
8.196416e-01 
8.241182e-01 
8.296999e-01 
8.363360e-01 
8.439850e-01 
8.526094e-01 
8.621737e-01 
8.726431e-01 
8.839828e-01 
8.961592e-01 
9.091392e-01 
9.228906e-01 
9.373824e-01 
9.525845e-01 
9.684677e-01 
9.850038e-01 
1.002165e+00 
1.019922e+00 
1.038249e+00 
1.057118e+00 
1.076504e+00 
1.096382e+00 
1.116731e+00 
1.137527e+00 
1.158749e+00 
1.180378e+00 
1.202395e+00 
1.224782e+00 
1.247520e+00 
1.270593e+00 
1.293985e+00 
1.317680e+00 
1.163200e+00 
1.141611e+00 
1.120427e+00 
1.099649e+00 
1.079295e+00 
1.059383e+00 
1.039936e+00 
1.020976e+00 
1.002525e+00 
9.846085e-01 
9.672501e-01 
9.504762e-01 
9.343150e-01 
9.187964e-01 
9.039499e-01 
8.898054e-01 
8.763933e-01 
8.637443e-01 
8.518896e-01 
8.408604e-01 
8.306877e-01 
8.214021e-01 
8.130335e-01 
8.056107e-01 
7.991607e-01 
7.937089e-01 
7.892781e-01 
7.858876e-01 
7.835506e-01 
7.822433e-01 
7.826221e-01 
7.847162e-01 
7.881450e-01 
7.927787e-01 
7.985450e-01 
8.053927e-01 
8.132789e-01 
8.221645e-01 
8.320116e-01 
8.427829e-01 
8.544415e-01 
8.669514e-01 
8.802775e-01 
8.943859e-01 
9.092437e-01 
9.248190e-01 
9.410813e-01 
9.580004e-01 
9.755460e-01 
9.936883e-01 
1.012399e+00 
1.031650e+00 
1.051417e+00 
1.071674e+00 
1.092396e+00 
1.113563e+00 
1.135152e+00 
1.157143e+00 
1.179516e+00 
1.202254e+00 
1.225337e+00 
1.248748e+00 
1.272472e+00 
1.296494e+00 
1.139978e+00 
1.118029e+00 
1.096480e+00 
1.075333e+00 
1.054605e+00 
1.034317e+00 
1.014491e+00 
9.951495e-01 
9.763168e-01 
9.580176e-01 
9.402778e-01 
9.231246e-01 
9.065870e-01 
8.906965e-01 
8.754841e-01 
8.609816e-01 
8.472211e-01 
8.342355e-01 
8.220579e-01 
8.107217e-01 
8.002604e-01 
7.907069e-01 
7.820935e-01 
7.744514e-01 
7.678102e-01 
7.621973e-01 
7.576376e-01 
7.541523e-01 
7.517559e-01 
7.504272e-01 
7.508985e-01 
7.531044e-01 
7.566711e-01 
7.614711e-01 
7.674330e-01 
7.745048e-01 
7.826423e-01 
7.918040e-01 
8.019498e-01 
8.130395e-01 
8.250337e-01 
8.378941e-01 
8.515834e-01 
8.660653e-01 
8.813052e-01 
8.972693e-01 
9.139250e-01 
9.312400e-01 
9.491821e-01 
9.677203e-01 
9.868254e-01 
1.006469e+00 
1.026625e+00 
1.047268e+00 
1.068372e+00 
1.089917e+00 
1.111878e+00 
1.134237e+00 
1.156972e+00 
1.180065e+00 
1.203497e+00 
1.227250e+00 
1.251310e+00 
1.275661e+00 
1.117099e+00 
1.094784e+00 
1.072862e+00 
1.051338e+00 
1.030227e+00 
1.009553e+00 
9.893377e-01 
9.696041e-01 
9.503774e-01 
9.316832e-01 
9.135488e-01 
8.960023e-01 
8.790737e-01 
8.627960e-01 
8.472021e-01 
8.323253e-01 
8.182000e-01 
8.048610e-01 
7.923438e-01 
7.806842e-01 
7.699182e-01 
7.600813e-01 
7.512087e-01 
7.433341e-01 
7.364897e-01 
7.307057e-01 
7.260091e-01 
7.224232e-01 
7.199642e-01 
7.186137e-01 
7.191803e-01 
7.215017e-01 
7.252126e-01 
7.301879e-01 
7.363567e-01 
7.436660e-01 
7.520697e-01 
7.615238e-01 
7.719852e-01 
7.834110e-01 
7.957588e-01 
8.089879e-01 
8.230584e-01 
8.379318e-01 
8.535710e-01 
8.699404e-01 
8.870049e-01 
9.047298e-01 
9.230816e-01 
9.420283e-01 
9.615396e-01 
9.815865e-01 
1.002142e+00 
1.023179e+00 
1.044674e+00 
1.066603e+00 
1.088943e+00 
1.111675e+00 
1.134776e+00 
1.158228e+00 
1.182012e+00 
1.206111e+00 
1.230509e+00 
1.255192e+00 
1.094582e+00 
1.071893e+00 
1.049592e+00 
1.027682e+00 
1.006181e+00 
9.851106e-01 
9.644949e-01 
9.443578e-01 
9.247249e-01 
9.056229e-01 
8.870800e-01 
8.691257e-01 
8.517911e-01 
8.351102e-01 
8.191181e-01 
8.038500e-01 
7.893423e-01 
7.756321e-01 
7.627574e-01 
7.507567e-01 
7.396686e-01 
7.295317e-01 
7.203841e-01 
7.122624e-01 
7.052021e-01 
6.992358e-01 
6.943935e-01 
6.907007e-01 
6.881756e-01 
6.868029e-01 
6.874675e-01 
6.899085e-01 
6.937706e-01 
6.989311e-01 
7.053192e-01 
7.128807e-01 
7.215668e-01 
7.313307e-01 
7.421262e-01 
7.539069e-01 
7.666278e-01 
7.802450e-01 
7.947159e-01 
8.099995e-01 
8.260563e-01 
8.428481e-01 
8.603372e-01 
8.784870e-01 
8.972626e-01 
9.166309e-01 
9.365605e-01 
9.570218e-01 
9.779867e-01 
9.994284e-01 
1.021322e+00 
1.043643e+00 
1.066369e+00 
1.089479e+00 
1.112951e+00 
1.136767e+00 
1.160907e+00 
1.185355e+00 
1.210094e+00 
1.235111e+00 
1.072446e+00 
1.049377e+00 
1.026688e+00 
1.004384e+00 
9.824832e-01 
9.610078e-01 
9.399816e-01 
9.194296e-01 
8.993783e-01 
8.798553e-01 
8.608899e-01 
8.425127e-01 
8.247563e-01 
8.076558e-01 
7.912481e-01 
7.755706e-01 
7.606619e-01 
7.465616e-01 
7.333103e-01 
7.209493e-01 
7.095204e-01 
6.990654e-01 
6.896255e-01 
6.812410e-01 
6.739504e-01 
6.677898e-01 
6.627921e-01 
6.589854e-01 
6.563903e-01 
6.549952e-01 
6.557599e-01 
6.583251e-01 
6.623462e-01 
6.677030e-01 
6.743243e-01 
6.821539e-01 
6.911403e-01 
7.012331e-01 
7.123825e-01 
7.245388e-01 
7.376534e-01 
7.516794e-01 
7.665711e-01 
7.822847e-01 
7.987780e-01 
8.160098e-01 
8.339401e-01 
8.525303e-01 
8.717443e-01 
8.915477e-01 
9.119083e-01 
9.327954e-01 
9.541802e-01 
9.760355e-01 
9.983357e-01 
1.021056e+00 
1.044174e+00 
1.067668e+00 
1.091516e+00 
1.115700e+00 
1.140200e+00 
1.164999e+00 
1.190083e+00 
1.215436e+00 
1.050708e+00 
1.027252e+00 
1.004170e+00 
9.814646e-01 
9.591554e-01 
9.372652e-01 
9.158182e-01 
8.948401e-01 
8.743580e-01 
8.544007e-01 
8.349985e-01 
8.161831e-01 
7.979886e-01 
7.804511e-01 
7.636096e-01 
7.475037e-01 
7.321744e-01 
7.176637e-01 
7.040153e-01 
6.912735e-01 
6.794835e-01 
6.686905e-01 
6.589396e-01 
6.502748e-01 
6.427384e-01 
6.363702e-01 
6.312062e-01 
6.272778e-01 
6.246085e-01 
6.231908e-01 
6.240576e-01 
6.267520e-01 
6.309410e-01 
6.365064e-01 
6.433762e-01 
6.514918e-01 
6.607979e-01 
6.712405e-01 
6.827655e-01 
6.953195e-01 
7.088501e-01 
7.233069e-01 
7.386409e-01 
7.548052e-01 
7.717546e-01 
7.894447e-01 
8.078333e-01 
8.268801e-01 
8.465476e-01 
8.668001e-01 
8.876042e-01 
9.089286e-01 
9.307437e-01 
9.530218e-01 
9.757368e-01 
9.988641e-01 
1.022380e+00 
1.046263e+00 
1.070492e+00 
1.095047e+00 
1.119910e+00 
1.145064e+00 
1.170494e+00 
1.196185e+00 
1.029390e+00 
1.005545e+00 
9.820629e-01 
9.589489e-01 
9.362232e-01 
9.139091e-01 
8.920311e-01 
8.706156e-01 
8.496904e-01 
8.292852e-01 
8.094313e-01 
7.901619e-01 
7.715121e-01 
7.535196e-01 
7.362251e-01 
7.196705e-01 
7.038994e-01 
6.889566e-01 
6.748888e-01 
6.617438e-01 
6.495704e-01 
6.384178e-01 
6.283352e-01 
6.193707e-01 
6.115710e-01 
6.049800e-01 
5.996377e-01 
5.955790e-01 
5.928305e-01 
5.913899e-01 
5.923607e-01 
5.951900e-01 
5.995567e-01 
6.053446e-01 
6.124802e-01 
6.209013e-01 
6.305488e-01 
6.413639e-01 
6.532882e-01 
6.662638e-01 
6.802342e-01 
6.951452e-01 
7.109442e-01 
7.275809e-01 
7.450065e-01 
7.631739e-01 
7.820387e-01 
8.015588e-01 
8.216951e-01 
8.424108e-01 
8.636712e-01 
8.854443e-01 
9.076999e-01 
9.304097e-01 
9.535474e-01 
9.770880e-01 
1.001008e+00 
1.025285e+00 
1.049898e+00 
1.074828e+00 
1.100057e+00 
1.125568e+00 
1.151347e+00 
1.177377e+00 
1.008539e+00 
9.843019e-01 
9.604131e-01 
9.368826e-01 
9.137316e-01 
8.909834e-01 
8.686633e-01 
8.467980e-01 
8.254162e-01 
8.045483e-01 
7.842267e-01 
7.644857e-01 
7.453619e-01 
7.268945e-01 
7.091259e-01 
6.921006e-01 
6.758646e-01 
6.604658e-01 
6.459542e-01 
6.323813e-01 
6.197998e-01 
6.082634e-01 
5.978257e-01 
5.885399e-01 
5.804573e-01 
5.736265e-01 
5.680920e-01 
5.638928e-01 
5.610592e-01 
5.595950e-01 
5.606680e-01 
5.636371e-01 
5.681923e-01 
5.742179e-01 
5.816382e-01 
5.903867e-01 
6.003993e-01 
6.116121e-01 
6.239615e-01 
6.373847e-01 
6.518208e-01 
6.672112e-01 
6.834994e-01 
7.006311e-01 
7.185543e-01 
7.372191e-01 
7.565787e-01 
7.765895e-01 
7.972106e-01 
8.184040e-01 
8.401339e-01 
8.623675e-01 
8.850740e-01 
9.082249e-01 
9.317933e-01 
9.557539e-01 
9.800831e-01 
1.004759e+00 
1.029760e+00 
1.055069e+00 
1.080667e+00 
1.106538e+00 
1.132665e+00 
1.159035e+00 
9.881912e-01 
9.635500e-01 
9.392458e-01 
9.152900e-01 
8.917038e-01 
8.685111e-01 
8.457373e-01 
8.234096e-01 
8.015575e-01 
7.802120e-01 
7.594064e-01 
7.391764e-01 
7.195598e-01 
7.005973e-01 
6.823333e-01 
6.648146e-01 
6.480899e-01 
6.322105e-01 
6.172295e-01 
6.032027e-01 
5.901871e-01 
5.782411e-01 
5.674236e-01 
5.577929e-01 
5.494060e-01 
5.423168e-01 
5.365749e-01 
5.322242e-01 
5.292991e-01 
5.278096e-01 
5.289751e-01 
5.320880e-01 
5.368429e-01 
5.431230e-01 
5.508489e-01 
5.599490e-01 
5.703532e-01 
5.819914e-01 
5.947943e-01 
6.086936e-01 
6.236235e-01 
6.395203e-01 
6.563234e-01 
6.739746e-01 
6.924181e-01 
7.116015e-01 
7.314759e-01 
7.519957e-01 
7.731187e-01 
7.948053e-01 
8.170191e-01 
8.397263e-01 
8.628958e-01 
8.864986e-01 
9.105074e-01 
9.348969e-01 
9.596433e-01 
9.847248e-01 
1.010121e+00 
1.035814e+00 
1.061785e+00 
1.088018e+00 
1.114498e+00 
1.141211e+00 
9.682781e-01 
9.432279e-01 
9.185072e-01 
8.941239e-01 
8.700992e-01 
8.464571e-01 
8.232233e-01 
8.004255e-01 
7.780934e-01 
7.562591e-01 
7.349567e-01 
7.142229e-01 
6.940971e-01 
6.746213e-01 
6.558417e-01 
6.378076e-01 
6.205707e-01 
6.041854e-01 
5.887090e-01 
5.742011e-01 
5.607238e-01 
5.483408e-01 
5.371168e-01 
5.271160e-01 
5.184018e-01 
5.110342e-01 
5.050690e-01 
5.005552e-01 
4.975328e-01 
4.960200e-01 
4.972925e-01 
5.005624e-01 
5.055339e-01 
5.120896e-01 
5.201459e-01 
5.296253e-01 
5.404505e-01 
5.525447e-01 
5.658318e-01 
5.802376e-01 
5.956904e-01 
6.121216e-01 
6.294657e-01 
6.476601e-01 
6.666459e-01 
6.863681e-01 
7.067756e-01 
7.278209e-01 
7.494604e-01 
7.716535e-01 
7.943630e-01 
8.175544e-01 
8.411963e-01 
8.652590e-01 
8.897150e-01 
9.145391e-01 
9.397079e-01 
9.652000e-01 
9.909954e-01 
1.017075e+00 
1.043423e+00 
1.070021e+00 
1.096856e+00 
1.123913e+00 
9.488768e-01 
9.234193e-01 
8.982783e-01 
8.734624e-01 
8.489930e-01 
8.248941e-01 
8.011915e-01 
7.779133e-01 
7.550897e-01 
7.327531e-01 
7.109387e-01 
6.896843e-01 
6.690304e-01 
6.490209e-01 
6.297032e-01 
6.111294e-01 
5.933541e-01 
5.764353e-01 
5.604340e-01 
5.454149e-01 
5.314451e-01 
5.185942e-01 
5.069332e-01 
4.965335e-01 
4.874653e-01 
4.797962e-01 
4.735886e-01 
4.688982e-01 
4.657706e-01 
4.642347e-01 
4.656151e-01 
4.690518e-01 
4.742567e-01 
4.811109e-01 
4.895254e-01 
4.994150e-01 
5.106944e-01 
5.232786e-01 
5.370840e-01 
5.520294e-01 
5.680366e-01 
5.850314e-01 
6.029435e-01 
6.217060e-01 
6.412570e-01 
6.615385e-01 
6.824974e-01 
7.040846e-01 
7.262549e-01 
7.489669e-01 
7.721825e-01 
7.958667e-01 
8.199874e-01 
8.445149e-01 
8.694216e-01 
8.946825e-01 
9.202749e-01 
9.461775e-01 
9.723706e-01 
9.988361e-01 
1.025557e+00 
1.052517e+00 
1.079702e+00 
1.107098e+00 
9.300195e-01 
9.041524e-01 
8.785880e-01 
8.533353e-01 
8.284157e-01 
8.038533e-01 
7.796739e-01 
7.559057e-01 
7.325792e-01 
7.097274e-01 
6.873863e-01 
6.655943e-01 
6.443936e-01 
6.238292e-01 
6.039505e-01 
5.848118e-01 
5.664707e-01 
5.489888e-01 
5.324316e-01 
5.168685e-01 
5.023725e-01 
4.890197e-01 
4.768883e-01 
4.660573e-01 
4.566054e-01 
4.486083e-01 
4.421369e-01 
4.372541e-01 
4.340126e-01 
4.324536e-01 
4.339429e-01 
4.375575e-01 
4.430151e-01 
4.501939e-01 
4.589978e-01 
4.693324e-01 
4.811028e-01 
4.942146e-01 
5.085755e-01 
5.240961e-01 
5.406916e-01 
5.582818e-01 
5.767909e-01 
5.961484e-01 
6.162886e-01 
6.371514e-01 
6.586813e-01 
6.808277e-01 
7.035440e-01 
7.267879e-01 
7.505205e-01 
7.747065e-01 
7.993133e-01 
8.243111e-01 
8.496727e-01 
8.753737e-01 
9.013914e-01 
9.277053e-01 
9.542960e-01 
9.811458e-01 
1.008238e+00 
1.035557e+00 
1.063089e+00 
1.090820e+00 
9.117340e-01 
8.854560e-01 
8.594660e-01 
8.337732e-01 
8.083991e-01 
7.833675e-01 
7.587041e-01 
7.344372e-01 
7.105974e-01 
6.872182e-01 
6.643359e-01 
6.419900e-01 
6.202235e-01 
5.990832e-01 
5.786201e-01 
5.588903e-01 
5.399548e-01 
5.218788e-01 
5.047323e-01 
4.885901e-01 
4.735313e-01 
4.596391e-01 
4.469998e-01 
4.357014e-01 
4.258321e-01 
4.174773e-01 
4.107175e-01 
4.056244e-01 
4.022590e-01 
4.006771e-01 
4.022758e-01 
4.060813e-01 
4.118139e-01 
4.193473e-01 
4.285762e-01 
4.393952e-01 
4.516979e-01 
4.653790e-01 
4.803360e-01 
4.964708e-01 
5.136910e-01 
5.319099e-01 
5.510466e-01 
5.710264e-01 
5.917806e-01 
6.132463e-01 
6.353662e-01 
6.580882e-01 
6.813647e-01 
7.051524e-01 
7.294121e-01 
7.541079e-01 
7.792072e-01 
8.046804e-01 
8.305009e-01 
8.566446e-01 
8.830893e-01 
9.098147e-01 
9.368023e-01 
9.640347e-01 
9.914961e-01 
1.019171e+00 
1.047046e+00 
1.075108e+00 
8.940481e-01 
8.673595e-01 
8.409428e-01 
8.148080e-01 
7.889763e-01 
7.634710e-01 
7.383178e-01 
7.135447e-01 
6.891824e-01 
6.652644e-01 
6.418275e-01 
6.189118e-01 
5.965613e-01 
5.748240e-01 
5.537525e-01 
5.334050e-01 
5.138453e-01 
4.951426e-01 
4.773713e-01 
4.606119e-01 
4.449502e-01 
4.304773e-01 
4.172886e-01 
4.054822e-01 
3.951572e-01 
3.864108e-01 
3.793345e-01 
3.740107e-01 
3.705097e-01 
3.689051e-01 
3.706136e-01 
3.746253e-01 
3.806589e-01 
3.885815e-01 
3.982764e-01 
4.096246e-01 
4.225062e-01 
4.368028e-01 
4.524004e-01 
4.691915e-01 
4.870752e-01 
5.059582e-01 
5.257543e-01 
5.463846e-01 
5.677774e-01 
5.898675e-01 
6.125958e-01 
6.359090e-01 
6.597586e-01 
6.841008e-01 
7.088960e-01 
7.341081e-01 
7.597049e-01 
7.856573e-01 
8.119391e-01 
8.385267e-01 
8.653985e-01 
8.925348e-01 
9.199175e-01 
9.475299e-01 
9.753570e-01 
1.003384e+00 
1.031598e+00 
1.059986e+00 
8.769928e-01 
8.498965e-01 
8.230538e-01 
7.964767e-01 
7.701859e-01 
7.442042e-01 
7.185569e-01 
6.932716e-01 
6.683788e-01 
6.439120e-01 
6.199082e-01 
5.964077e-01 
5.734553e-01 
5.511001e-01 
5.293963e-01 