# vtk DataFile Version 2.0 
Quadtree Mesh 
ASCII 
DATASET UNSTRUCTURED_GRID 
POINTS 4096 double 
-1.000000e+00 -1.000000e+00 0.000000e+00
-9.682540e-01 -1.000000e+00 0.000000e+00
-9.365079e-01 -1.000000e+00 0.000000e+00
-9.047619e-01 -1.000000e+00 0.000000e+00
-8.730159e-01 -1.000000e+00 0.000000e+00
-8.412698e-01 -1.000000e+00 0.000000e+00
-8.095238e-01 -1.000000e+00 0.000000e+00
-7.777778e-01 -1.000000e+00 0.000000e+00
-7.460317e-01 -1.000000e+00 0.000000e+00
-7.142857e-01 -1.000000e+00 0.000000e+00
-6.825397e-01 -1.000000e+00 0.000000e+00
-6.507937e-01 -1.000000e+00 0.000000e+00
-6.190476e-01 -1.000000e+00 0.000000e+00
-5.873016e-01 -1.000000e+00 0.000000e+00
-5.555556e-01 -1.000000e+00 0.000000e+00
-5.238095e-01 -1.000000e+00 0.000000e+00
-4.920635e-01 -1.000000e+00 0.000000e+00
-4.603175e-01 -1.000000e+00 0.000000e+00
-4.285714e-01 -1.000000e+00 0.000000e+00
-3.968254e-01 -1.000000e+00 0.000000e+00
-3.650794e-01 -1.000000e+00 0.000000e+00
-3.333333e-01 -1.000000e+00 0.000000e+00
-3.015873e-01 -1.000000e+00 0.000000e+00
-2.698413e-01 -1.000000e+00 0.000000e+00
-2.380952e-01 -1.000000e+00 0.000000e+00
-2.063492e-01 -1.000000e+00 0.000000e+00
-1.746032e-01 -1.000000e+00 0.000000e+00
-1.428571e-01 -1.000000e+00 0.000000e+00
-1.111111e-01 -1.000000e+00 0.000000e+00
-7.936508e-02 -1.000000e+00 0.000000e+00
-4.761905e-02 -1.000000e+00 0.000000e+00
-1.587302e-02 -1.000000e+00 0.000000e+00
1.587302e-02 -1.000000e+00 0.000000e+00
4.761905e-02 -1.000000e+00 0.000000e+00
7.936508e-02 -1.000000e+00 0.000000e+00
1.111111e-01 -1.000000e+00 0.000000e+00
1.428571e-01 -1.000000e+00 0.000000e+00
1.746032e-01 -1.000000e+00 0.000000e+00
2.063492e-01 -1.000000e+00 0.000000e+00
2.380952e-01 -1.000000e+00 0.000000e+00
2.698413e-01 -1.000000e+00 0.000000e+00
3.015873e-01 -1.000000e+00 0.000000e+00
3.333333e-01 -1.000000e+00 0.000000e+00
3.650794e-01 -1.000000e+00 0.000000e+00
3.968254e-01 -1.000000e+00 0.000000e+00
4.285714e-01 -1.000000e+00 0.000000e+00
4.603175e-01 -1.000000e+00 0.000000e+00
4.920635e-01 -1.000000e+00 0.000000e+00
5.238095e-01 -1.000000e+00 0.000000e+00
5.555556e-01 -1.000000e+00 0.000000e+00
5.873016e-01 -1.000000e+00 0.000000e+00
6.190476e-01 -1.000000e+00 0.000000e+00
6.507937e-01 -1.000000e+00 0.000000e+00
6.825397e-01 -1.000000e+00 0.000000e+00
7.142857e-01 -1.000000e+00 0.000000e+00
7.460317e-01 -1.000000e+00 0.000000e+00
7.777778e-01 -1.000000e+00 0.000000e+00
8.095238e-01 -1.000000e+00 0.000000e+00
8.412698e-01 -1.000000e+00 0.000000e+00
8.730159e-01 -1.000000e+00 0.000000e+00
9.047619e-01 -1.000000e+00 0.000000e+00
9.365079e-01 -1.000000e+00 0.000000e+00
9.682540e-01 -1.000000e+00 0.000000e+00
1.000000e+00 -1.000000e+00 0.000000e+00
-1.000000e+00 -9.682540e-01 0.000000e+00
-9.682540e-01 -9.682540e-01 0.000000e+00
-9.365079e-01 -9.682540e-01 0.000000e+00
-9.047619e-01 -9.682540e-01 0.000000e+00
-8.730159e-01 -9.682540e-01 0.000000e+00
-8.412698e-01 -9.682540e-01 0.000000e+00
-8.095238e-01 -9.682540e-01 0.000000e+00
-7.777778e-01 -9.682540e-01 0.000000e+00
-7.460317e-01 -9.682540e-01 0.000000e+00
-7.142857e-01 -9.682540e-01 0.000000e+00
-6.825397e-01 -9.682540e-01 0.000000e+00
-6.507937e-01 -9.682540e-01 0.000000e+00
-6.190476e-01 -9.682540e-01 0.000000e+00
-5.873016e-01 -9.682540e-01 0.000000e+00
-5.555556e-01 -9.682540e-01 0.000000e+00
-5.238095e-01 -9.682540e-01 0.000000e+00
-4.920635e-01 -9.682540e-01 0.000000e+00
-4.603175e-01 -9.682540e-01 0.000000e+00
-4.285714e-01 -9.682540e-01 0.000000e+00
-3.968254e-01 -9.682540e-01 0.000000e+00
-3.650794e-01 -9.682540e-01 0.000000e+00
-3.333333e-01 -9.682540e-01 0.000000e+00
-3.015873e-01 -9.682540e-01 0.000000e+00
-2.698413e-01 -9.682540e-01 0.000000e+00
-2.380952e-01 -9.682540e-01 0.000000e+00
-2.063492e-01 -9.682540e-01 0.000000e+00
-1.746032e-01 -9.682540e-01 0.000000e+00
-1.428571e-01 -9.682540e-01 0.000000e+00
-1.111111e-01 -9.682540e-01 0.000000e+00
-7.936508e-02 -9.682540e-01 0.000000e+00
-4.761905e-02 -9.682540e-01 0.000000e+00
-1.587302e-02 -9.682540e-01 0.000000e+00
1.587302e-02 -9.682540e-01 0.000000e+00
4.761905e-02 -9.682540e-01 0.000000e+00
7.936508e-02 -9.682540e-01 0.000000e+00
1.111111e-01 -9.682540e-01 0.000000e+00
1.428571e-01 -9.682540e-01 0.000000e+00
1.746032e-01 -9.682540e-01 0.000000e+00
2.063492e-01 -9.682540e-01 0.000000e+00
2.380952e-01 -9.682540e-01 0.000000e+00
2.698413e-01 -9.682540e-01 0.000000e+00
3.015873e-01 -9.682540e-01 0.000000e+00
3.333333e-01 -9.682540e-01 0.000000e+00
3.650794e-01 -9.682540e-01 0.000000e+00
3.968254e-01 -9.682540e-01 0.000000e+00
4.285714e-01 -9.682540e-01 0.000000e+00
4.603175e-01 -9.682540e-01 0.000000e+00
4.920635e-01 -9.682540e-01 0.000000e+00
5.238095e-01 -9.682540e-01 0.000000e+00
5.555556e-01 -9.682540e-01 0.000000e+00
5.873016e-01 -9.682540e-01 0.000000e+00
6.190476e-01 -9.682540e-01 0.000000e+00
6.507937e-01 -9.682540e-01 0.000000e+00
6.825397e-01 -9.682540e-01 0.000000e+00
7.142857e-01 -9.682540e-01 0.000000e+00
7.460317e-01 -9.682540e-01 0.000000e+00
7.777778e-01 -9.682540e-01 0.000000e+00
8.095238e-01 -9.682540e-01 0.000000e+00
8.412698e-01 -9.682540e-01 0.000000e+00
8.730159e-01 -9.682540e-01 0.000000e+00
9.047619e-01 -9.682540e-01 0.000000e+00
9.365079e-01 -9.682540e-01 0.000000e+00
9.682540e-01 -9.682540e-01 0.000000e+00
1.000000e+00 -9.682540e-01 0.000000e+00
-1.000000e+00 -9.365079e-01 0.000000e+00
-9.682540e-01 -9.365079e-01 0.000000e+00
-9.365079e-01 -9.365079e-01 0.000000e+00
-9.047619e-01 -9.365079e-01 0.000000e+00
-8.730159e-01 -9.365079e-01 0.000000e+00
-8.412698e-01 -9.365079e-01 0.000000e+00
-8.095238e-01 -9.365079e-01 0.000000e+00
-7.777778e-01 -9.365079e-01 0.000000e+00
-7.460317e-01 -9.365079e-01 0.000000e+00
-7.142857e-01 -9.365079e-01 0.000000e+00
-6.825397e-01 -9.365079e-01 0.000000e+00
-6.507937e-01 -9.365079e-01 0.000000e+00
-6.190476e-01 -9.365079e-01 0.000000e+00
-5.873016e-01 -9.365079e-01 0.000000e+00
-5.555556e-01 -9.365079e-01 0.000000e+00
-5.238095e-01 -9.365079e-01 0.000000e+00
-4.920635e-01 -9.365079e-01 0.000000e+00
-4.603175e-01 -9.365079e-01 0.000000e+00
-4.285714e-01 -9.365079e-01 0.000000e+00
-3.968254e-01 -9.365079e-01 0.000000e+00
-3.650794e-01 -9.365079e-01 0.000000e+00
-3.333333e-01 -9.365079e-01 0.000000e+00
-3.015873e-01 -9.365079e-01 0.000000e+00
-2.698413e-01 -9.365079e-01 0.000000e+00
-2.380952e-01 -9.365079e-01 0.000000e+00
-2.063492e-01 -9.365079e-01 0.000000e+00
-1.746032e-01 -9.365079e-01 0.000000e+00
-1.428571e-01 -9.365079e-01 0.000000e+00
-1.111111e-01 -9.365079e-01 0.000000e+00
-7.936508e-02 -9.365079e-01 0.000000e+00
-4.761905e-02 -9.365079e-01 0.000000e+00
-1.587302e-02 -9.365079e-01 0.000000e+00
1.587302e-02 -9.365079e-01 0.000000e+00
4.761905e-02 -9.365079e-01 0.000000e+00
7.936508e-02 -9.365079e-01 0.000000e+00
1.111111e-01 -9.365079e-01 0.000000e+00
1.428571e-01 -9.365079e-01 0.000000e+00
1.746032e-01 -9.365079e-01 0.000000e+00
2.063492e-01 -9.365079e-01 0.000000e+00
2.380952e-01 -9.365079e-01 0.000000e+00
2.698413e-01 -9.365079e-01 0.000000e+00
3.015873e-01 -9.365079e-01 0.000000e+00
3.333333e-01 -9.365079e-01 0.000000e+00
3.650794e-01 -9.365079e-01 0.000000e+00
3.968254e-01 -9.365079e-01 0.000000e+00
4.285714e-01 -9.365079e-01 0.000000e+00
4.603175e-01 -9.365079e-01 0.000000e+00
4.920635e-01 -9.365079e-01 0.000000e+00
5.238095e-01 -9.365079e-01 0.000000e+00
5.555556e-01 -9.365079e-01 0.000000e+00
5.873016e-01 -9.365079e-01 0.000000e+00
6.190476e-01 -9.365079e-01 0.000000e+00
6.507937e-01 -9.365079e-01 0.000000e+00
6.825397e-01 -9.365079e-01 0.000000e+00
7.142857e-01 -9.365079e-01 0.000000e+00
7.460317e-01 -9.365079e-01 0.000000e+00
7.777778e-01 -9.365079e-01 0.000000e+00
8.095238e-01 -9.365079e-01 0.000000e+00
8.412698e-01 -9.365079e-01 0.000000e+00
8.730159e-01 -9.365079e-01 0.000000e+00
9.047619e-01 -9.365079e-01 0.000000e+00
9.365079e-01 -9.365079e-01 0.000000e+00
9.682540e-01 -9.365079e-01 0.000000e+00
1.000000e+00 -9.365079e-01 0.000000e+00
-1.000000e+00 -9.047619e-01 0.000000e+00
-9.682540e-01 -9.047619e-01 0.000000e+00
-9.365079e-01 -9.047619e-01 0.000000e+00
-9.047619e-01 -9.047619e-01 0.000000e+00
-8.730159e-01 -9.047619e-01 0.000000e+00
-8.412698e-01 -9.047619e-01 0.000000e+00
-8.095238e-01 -9.047619e-01 0.000000e+00
-7.777778e-01 -9.047619e-01 0.000000e+00
-7.460317e-01 -9.047619e-01 0.000000e+00
-7.142857e-01 -9.047619e-01 0.000000e+00
-6.825397e-01 -9.047619e-01 0.000000e+00
-6.507937e-01 -9.047619e-01 0.000000e+00
-6.190476e-01 -9.047619e-01 0.000000e+00
-5.873016e-01 -9.047619e-01 0.000000e+00
-5.555556e-01 -9.047619e-01 0.000000e+00
-5.238095e-01 -9.047619e-01 0.000000e+00
-4.920635e-01 -9.047619e-01 0.000000e+00
-4.603175e-01 -9.047619e-01 0.000000e+00
-4.285714e-01 -9.047619e-01 0.000000e+00
-3.968254e-01 -9.047619e-01 0.000000e+00
-3.650794e-01 -9.047619e-01 0.000000e+00
-3.333333e-01 -9.047619e-01 0.000000e+00
-3.015873e-01 -9.047619e-01 0.000000e+00
-2.698413e-01 -9.047619e-01 0.000000e+00
-2.380952e-01 -9.047619e-01 0.000000e+00
-2.063492e-01 -9.047619e-01 0.000000e+00
-1.746032e-01 -9.047619e-01 0.000000e+00
-1.428571e-01 -9.047619e-01 0.000000e+00
-1.111111e-01 -9.047619e-01 0.000000e+00
-7.936508e-02 -9.047619e-01 0.000000e+00
-4.761905e-02 -9.047619e-01 0.000000e+00
-1.587302e-02 -9.047619e-01 0.000000e+00
1.587302e-02 -9.047619e-01 0.000000e+00
4.761905e-02 -9.047619e-01 0.000000e+00
7.936508e-02 -9.047619e-01 0.000000e+00
1.111111e-01 -9.047619e-01 0.000000e+00
1.428571e-01 -9.047619e-01 0.000000e+00
1.746032e-01 -9.047619e-01 0.000000e+00
2.063492e-01 -9.047619e-01 0.000000e+00
2.380952e-01 -9.047619e-01 0.000000e+00
2.698413e-01 -9.047619e-01 0.000000e+00
3.015873e-01 -9.047619e-01 0.000000e+00
3.333333e-01 -9.047619e-01 0.000000e+00
3.650794e-01 -9.047619e-01 0.000000e+00
3.968254e-01 -9.047619e-01 0.000000e+00
4.285714e-01 -9.047619e-01 0.000000e+00
4.603175e-01 -9.047619e-01 0.000000e+00
4.920635e-01 -9.047619e-01 0.000000e+00
5.238095e-01 -9.047619e-01 0.000000e+00
5.555556e-01 -9.047619e-01 0.000000e+00
5.873016e-01 -9.047619e-01 0.000000e+00
6.190476e-01 -9.047619e-01 0.000000e+00
[...]
POINT_DATA 4096 
SCALARS concentration double 1 
LOOKUP_TABLE default 
1.447588e+00 
1.427256e+00 
1.407278e+00 
1.387662e+00 
1.368421e+00 
1.349570e+00 
1.331124e+00 
1.313100e+00 
1.295513e+00 
1.278379e+00 
1.261717e+00 
1.245541e+00 
1.229871e+00 
1.214724e+00 
1.200118e+00 
1.186072e+00 
1.172606e+00 
1.159737e+00 
1.147486e+00 
1.135874e+00 
1.124919e+00 
1.114642e+00 
1.105064e+00 
1.096207e+00 
1.088090e+00 
1.080728e+00 
1.074137e+00 
1.068331e+00 
1.063326e+00 
1.059136e+00 
1.055774e+00 
1.053253e+00 
1.051584e+00 
1.050776e+00 
1.051110e+00 
1.052698e+00 
1.055440e+00 
1.059223e+00 
1.063960e+00 
1.069591e+00 
1.076075e+00 
1.083379e+00 
1.091476e+00 
1.100342e+00 
1.109952e+00 
1.120287e+00 
1.131323e+00 
1.143040e+00 
1.155417e+00 
1.168434e+00 
1.182069e+00 
1.196303e+00 
1.211115e+00 
1.226487e+00 
1.242399e+00 
1.258833e+00 
1.275769e+00 
1.293190e+00 
1.311076e+00 
1.329410e+00 
1.348177e+00 
1.367362e+00 
1.386948e+00 
1.406923e+00 
1.423229e+00 
1.402601e+00 
1.382326e+00 
1.362412e+00 
1.342871e+00 
1.323718e+00 
1.304970e+00 
1.286642e+00 
1.268752e+00 
1.251316e+00 
1.234353e+00 
1.217878e+00 
1.201912e+00 
1.186471e+00 
1.171577e+00 
1.157247e+00 
1.143502e+00 
1.130363e+00 
1.117849e+00 
1.105982e+00 
1.094782e+00 
1.084272e+00 
1.074472e+00 
1.065406e+00 
1.057094e+00 
1.049554e+00 
1.042803e+00 
1.036857e+00 
1.031730e+00 
1.027440e+00 
1.023999e+00 
1.021422e+00 
1.019721e+00 
1.018906e+00 
1.019295e+00 
1.020986e+00 
1.023850e+00 
1.027764e+00 
1.032644e+00 
1.038432e+00 
1.045086e+00 
1.052575e+00 
1.060870e+00 
1.069948e+00 
1.079784e+00 
1.090356e+00 
1.101641e+00 
1.113618e+00 
1.126263e+00 
1.139556e+00 
1.153475e+00 
1.167998e+00 
1.183106e+00 
1.198777e+00 
1.214992e+00 
1.231730e+00 
1.248973e+00 
1.266701e+00 
1.284894e+00 
1.303537e+00 
1.322611e+00 
1.342102e+00 
1.361994e+00 
1.382273e+00 
1.399124e+00 
1.378194e+00 
1.357616e+00 
1.337397e+00 
1.317550e+00 
1.298089e+00 
1.279031e+00 
1.260392e+00 
1.242191e+00 
1.224445e+00 
1.207171e+00 
1.190389e+00 
1.174116e+00 
1.158373e+00 
1.143180e+00 
1.128556e+00 
1.114523e+00 
1.101103e+00 
1.088315e+00 
1.076183e+00 
1.064729e+00 
1.053975e+00 
1.043944e+00 
1.034659e+00 
1.026144e+00 
1.018418e+00 
1.011500e+00 
1.005405e+00 
1.000151e+00 
9.957554e-01 
9.922326e-01 
9.895971e-01 
9.878622e-01 
9.870402e-01 
9.874904e-01 
9.892902e-01 
9.922778e-01 
9.963269e-01 
1.001354e+00 
1.007303e+00 
1.014133e+00 
1.021813e+00 
1.030314e+00 
1.039612e+00 
1.049682e+00 
1.060501e+00 
1.072044e+00 
1.084288e+00 
1.097211e+00 
1.110789e+00 
1.125000e+00 
1.139821e+00 
1.155232e+00 
1.171210e+00 
1.187734e+00 
1.204785e+00 
1.222341e+00 
1.240382e+00 
1.258888e+00 
1.277844e+00 
1.297231e+00 
1.317033e+00 
1.337234e+00 
1.357820e+00 
1.375285e+00 
1.354048e+00 
1.333161e+00 
1.312630e+00 
1.292470e+00 
1.272694e+00 
1.253318e+00 
1.234361e+00 
1.215841e+00 
1.197775e+00 
1.180183e+00 
1.163083e+00 
1.146495e+00 
1.130439e+00 
1.114937e+00 
1.100009e+00 
1.085677e+00 
1.071964e+00 
1.058892e+00 
1.046485e+00 
1.034765e+00 
1.023757e+00 
1.013485e+00 
1.003972e+00 
9.952437e-01 
9.873226e-01 
9.802278e-01 
9.739777e-01 
9.685902e-01 
9.640834e-01 
9.604740e-01 
9.577773e-01 
9.560079e-01 
9.551794e-01 
9.556977e-01 
9.576118e-01 
9.607260e-01 
9.649134e-01 
9.700924e-01 
9.762082e-01 
9.832213e-01 
9.911000e-01 
9.998162e-01 
1.009344e+00 
1.019657e+00 
1.030732e+00 
1.042543e+00 
1.055066e+00 
1.068276e+00 
1.082150e+00 
1.096664e+00 
1.111794e+00 
1.127517e+00 
1.143811e+00 
1.160654e+00 
1.178026e+00 
1.195903e+00 
1.214266e+00 
1.233094e+00 
1.252370e+00 
1.272076e+00 
1.292195e+00 
1.312712e+00 
1.333610e+00 
1.351723e+00 
1.330173e+00 
1.308972e+00 
1.288123e+00 
1.267643e+00 
1.247544e+00 
1.227844e+00 
1.208561e+00 
1.189713e+00 
1.171319e+00 
1.153399e+00 
1.135972e+00 
1.119058e+00 
1.102679e+00 
1.086857e+00 
1.071614e+00 
1.056972e+00 
1.042955e+00 
1.029588e+00 
1.016893e+00 
1.004897e+00 
9.936236e-01 
9.830983e-01 
9.733469e-01 
9.643957e-01 
9.562695e-01 
9.489897e-01 
9.425759e-01 
9.370477e-01 
9.324243e-01 
9.287238e-01 
9.259630e-01 
9.241577e-01 
9.233236e-01 
9.239173e-01 
9.259502e-01 
9.291943e-01 
9.335244e-01 
9.388609e-01 
9.451504e-01 
9.523542e-01 
9.604405e-01 
9.693808e-01 
9.791480e-01 
9.897157e-01 
1.001058e+00 
1.013148e+00 
1.025961e+00 
1.039470e+00 
1.053651e+00 
1.068478e+00 
1.083926e+00 
1.099973e+00 
1.116594e+00 
1.133766e+00 
1.151468e+00 
1.169676e+00 
1.188368e+00 
1.207526e+00 
1.227130e+00 
1.247163e+00 
1.267607e+00 
1.288445e+00 
1.309662e+00 
1.328451e+00 
1.306583e+00 
1.285060e+00 
1.263887e+00 
1.243080e+00 
1.222652e+00 
1.202620e+00 
1.183003e+00 
1.163819e+00 
1.145088e+00 
1.126830e+00 
1.109065e+00 
1.091816e+00 
1.075103e+00 
1.058950e+00 
1.043380e+00 
1.028416e+00 
1.014084e+00 
1.000409e+00 
9.874151e-01 
9.751299e-01 
9.635793e-01 
9.527899e-01 
9.427888e-01 
9.336036e-01 
9.252620e-01 
9.177873e-01 
9.112012e-01 
9.055247e-01 
9.007784e-01 
8.969819e-01 
8.941537e-01 
8.923110e-01 
8.914722e-01 
8.921499e-01 
8.943054e-01 
8.976833e-01 
9.021610e-01 
9.076612e-01 
9.141319e-01 
9.215349e-01 
9.298383e-01 
9.390129e-01 
9.490307e-01 
9.598638e-01 
9.714847e-01 
9.838659e-01 
9.969802e-01 
1.010800e+00 
1.025300e+00 
1.040452e+00 
1.056231e+00 
1.072611e+00 
1.089570e+00 
1.107081e+00 
1.125123e+00 
1.143670e+00 
1.162702e+00 
1.182198e+00 
1.202139e+00 
1.222506e+00 
1.243281e+00 
1.264448e+00 
1.285989e+00 
1.305477e+00 
1.283286e+00 
1.261437e+00 
1.239934e+00 
1.218793e+00 
1.198029e+00 
1.177658e+00 
1.157698e+00 
1.138170e+00 
1.119093e+00 
1.100488e+00 
1.082376e+00 
1.064781e+00 
1.047723e+00 
1.031228e+00 
1.015318e+00 
1.000021e+00 
9.853606e-01 
9.713643e-01 
9.580588e-01 
9.454718e-01 
9.336311e-01 
9.225650e-01 
9.123021e-01 
9.028717e-01 
8.943034e-01 
8.866235e-01 
8.798556e-01 
8.740224e-01 
8.691463e-01 
8.652486e-01 
8.623494e-01 
8.604678e-01 
8.596254e-01 
8.603959e-01 
8.626771e-01 
8.661927e-01 
8.708236e-01 
8.764944e-01 
8.831545e-01 
8.907660e-01 
8.992969e-01 
9.087170e-01 
9.189969e-01 
9.301076e-01 
9.420199e-01 
9.547047e-01 
9.681332e-01 
9.822766e-01 
9.971067e-01 
1.012596e+00 
1.028717e+00 
1.045443e+00 
1.062750e+00 
1.080611e+00 
1.099002e+00 
1.117899e+00 
1.137279e+00 
1.157122e+00 
1.177407e+00 
1.198116e+00 
1.219229e+00 
1.240731e+00 
1.262603e+00 
1.282828e+00 
1.260311e+00 
1.238129e+00 
1.216290e+00 
1.194808e+00 
1.173699e+00 
1.152980e+00 
1.132670e+00 
1.112788e+00 
1.093355e+00 
1.074392e+00 
1.055923e+00 
1.037969e+00 
1.020555e+00 
1.003704e+00 
9.874433e-01 
9.717983e-01 
9.567962e-01 
9.424651e-01 
9.288335e-01 
9.159305e-01 
9.037857e-01 
8.924291e-01 
8.818912e-01 
8.722030e-01 
8.633957e-01 
8.554991e-01 
8.485390e-01 
8.425402e-01 
8.375268e-01 
8.335221e-01 
8.305481e-01 
8.286261e-01 
8.277817e-01 
8.286558e-01 
8.310661e-01 
8.347242e-01 
8.395145e-01 
8.453636e-01 
8.522223e-01 
8.600528e-01 
8.688224e-01 
8.785001e-01 
8.890550e-01 
9.004563e-01 
9.126733e-01 
9.256751e-01 
9.394310e-01 
9.539108e-01 
9.690847e-01 
9.849233e-01 
1.001398e+00 
1.018482e+00 
1.036148e+00 
1.054369e+00 
1.073120e+00 
1.092375e+00 
1.112113e+00 
1.132311e+00 
1.152948e+00 
1.174006e+00 
1.195465e+00 
1.217308e+00 
1.239517e+00 
1.260532e+00 
1.237680e+00 
1.215158e+00 
1.192975e+00 
1.171144e+00 
1.149682e+00 
1.128607e+00 
1.107937e+00 
1.087691e+00 
1.067892e+00 
1.048562e+00 
1.029723e+00 
1.011400e+00 
9.936162e-01 
9.763983e-01 
9.597726e-01 
9.437666e-01 
9.284090e-01 
9.137290e-01 
8.997569e-01 
8.865236e-01 
8.740603e-01 
8.623992e-01 
8.515725e-01 
8.416131e-01 
8.325543e-01 
8.244289e-01 
8.172658e-01 
8.110918e-01 
8.059332e-01 
8.018151e-01 
7.987620e-01 
7.967974e-01 
7.959515e-01 
7.969277e-01 
7.994645e-01 
8.032674e-01 
8.082226e-01 
8.142581e-01 
8.213253e-01 
8.293865e-01 
8.384081e-01 
8.483575e-01 
8.592023e-01 
8.709098e-01 
8.834473e-01 
8.967819e-01 
9.108811e-01 
9.257129e-01 
9.412457e-01 
9.574487e-01 
9.742921e-01 
9.917468e-01 
1.009785e+00 
1.028379e+00 
1.047501e+00 
1.067127e+00 
1.087232e+00 
1.107795e+00 
1.128795e+00 
1.150210e+00 
1.172023e+00 
1.194215e+00 
1.216768e+00 
1.238559e+00 
1.215366e+00 
1.192501e+00 
1.169969e+00 
1.147784e+00 
1.125964e+00 
1.104526e+00 
1.083489e+00 
1.062873e+00 
1.042700e+00 
1.022992e+00 
1.003774e+00 
9.850699e-01 
9.669057e-01 
9.493080e-01 
9.323044e-01 
9.159239e-01 
9.001965e-01 
8.851531e-01 
8.708255e-01 
8.572464e-01 
8.444493e-01 
8.324681e-01 
8.213374e-01 
8.110922e-01 
8.017681e-01 
7.934005e-01 
7.860220e-01 
7.796619e-01 
7.743489e-01 
7.701104e-01 
7.669735e-01 
7.649644e-01 
7.641199e-01 
7.652118e-01 
7.678817e-01 
7.718370e-01 
7.769656e-01 
7.831973e-01 
7.904845e-01 
7.987892e-01 
8.080766e-01 
8.183125e-01 
8.294624e-01 
8.414915e-01 
8.543650e-01 
8.680480e-01 
8.825059e-01 
8.977048e-01 
9.136112e-01 
9.301929e-01 
9.474184e-01 
9.652574e-01 
9.836804e-01 
1.002659e+00 
1.022164e+00 
1.042171e+00 
1.062654e+00 
1.083592e+00 
1.104963e+00 
1.126746e+00 
1.148920e+00 
1.171469e+00 
1.194373e+00 
1.216945e+00 
1.193410e+00 
1.170197e+00 
1.147310e+00 
1.124765e+00 
1.102580e+00 
1.080771e+00 
1.059359e+00 
1.038363e+00 
1.017806e+00 
9.977110e-01 
9.781025e-01 
9.590062e-01 
9.404487e-01 
9.224577e-01 
9.050623e-01 
8.882926e-01 
8.721802e-01 
8.567575e-01 
8.420582e-01 
8.281170e-01 
8.149694e-01 
8.026516e-01 
7.912006e-01 
7.806539e-01 
7.710494e-01 
7.624254e-01 
7.548182e-01 
7.482603e-01 
7.427829e-01 
7.384164e-01 
7.351904e-01 
7.331347e-01 
7.322936e-01 
7.335060e-01 
7.363124e-01 
7.404252e-01 
7.457347e-01 
7.521725e-01 
7.596915e-01 
7.682530e-01 
7.778209e-01 
7.883586e-01 
7.998296e-01 
8.121967e-01 
8.254224e-01 
8.394697e-01 
8.543018e-01 
8.698827e-01 
8.861771e-01 
9.031510e-01 
9.207714e-01 
9.390065e-01 
9.578255e-01 
9.771983e-01 
9.970960e-01 
1.017492e+00 
1.038362e+00 
1.059682e+00 
1.081430e+00 
1.103585e+00 
1.126127e+00 
1.149036e+00 
1.172295e+00 
1.195711e+00 
1.171829e+00 
1.148262e+00 
1.125016e+00 
1.102105e+00 
1.079547e+00 
1.057361e+00 
1.035565e+00 
1.014181e+00 
9.932302e-01 
9.727370e-01 
9.527268e-01 
9.332260e-01 
9.142623e-01 
8.958644e-01 
8.780625e-01 
8.608884e-01 
8.443750e-01 
8.285565e-01 
8.134684e-01 
7.991475e-01 
7.856317e-01 
7.729596e-01 
7.611707e-01 
7.503053e-01 
7.404040e-01 
7.315081e-01 
7.236578e-01 
7.168892e-01 
7.112368e-01 
7.067337e-01 
7.034130e-01 
7.013079e-01 
7.004731e-01 
7.018099e-01 
7.047565e-01 
7.090328e-01 
7.145316e-01 
7.211866e-01 
7.289507e-01 
7.377843e-01 
7.476491e-01 
7.585062e-01 
7.703162e-01 
7.830393e-01 
7.966354e-01 
8.110649e-01 
8.262886e-01 
8.422683e-01 
8.589668e-01 
8.763481e-01 
8.943778e-01 
9.130225e-01 
9.322502e-01 
9.520291e-01 
9.723301e-01 
9.931261e-01 
1.014391e+00 
1.036102e+00 
1.058235e+00 
1.080769e+00 
1.103683e+00 
1.126958e+00 
1.150576e+00 
1.174873e+00 
1.150641e+00 
1.126717e+00 
1.103105e+00 
1.079822e+00 
1.056885e+00 
1.034313e+00 
1.012126e+00 
9.903444e-01 
9.689906e-01 
9.480890e-01 
9.276658e-01 
9.077483e-01 
8.883650e-01 
8.695461e-01 
8.513229e-01 
8.337284e-01 
8.167973e-01 
8.005655e-01 
7.850707e-01 
7.703516e-01 
7.564486e-01 
7.434031e-01 
7.312575e-01 
7.200548e-01 
7.098390e-01 
7.006543e-01 
6.925452e-01 
6.855518e-01 
6.797123e-01 
6.750633e-01 
6.716414e-01 
6.694844e-01 
6.686591e-01 
6.701234e-01 
6.732138e-01 
6.776600e-01 
6.833576e-01 
6.902420e-01 
6.982660e-01 
7.073883e-01 
7.175680e-01 
7.287635e-01 
7.409321e-01 
7.540309e-01 
7.680169e-01 
7.828477e-01 
7.984816e-01 
8.148780e-01 
8.319975e-01 
8.498025e-01 
8.682565e-01 
8.873250e-01 
9.069742e-01 
9.271714e-01 
9.478870e-01 
9.690929e-01 
9.907631e-01 
1.012873e+00 
1.035398e+00 
1.058318e+00 
1.081610e+00 
1.105257e+00 
1.129239e+00 
1.154450e+00 
1.129864e+00 
1.105578e+00 
1.081596e+00 
1.057935e+00 
1.034613e+00 
1.011649e+00 
9.890618e-01 
9.668739e-01 
9.451076e-01 
9.237873e-01 
9.029398e-01 
8.825931e-01 
8.627771e-01 
8.435227e-01 
8.248627e-01 
8.068315e-01 
7.894654e-01 
7.728021e-01 
7.568814e-01 
7.417445e-01 
7.274343e-01 
7.139950e-01 
7.014722e-01 
6.899123e-01 
6.793625e-01 
6.698708e-01 
6.614854e-01 
6.542519e-01 
6.482121e-01 
6.434068e-01 
6.398766e-01 
6.376645e-01 
6.368527e-01 
6.384468e-01 
6.416847e-01 
6.463076e-01 
6.522144e-01 
6.593418e-01 
6.676420e-01 
6.770713e-01 
6.875857e-01 
6.991400e-01 
7.116883e-01 
7.251840e-01 
7.395809e-01 
7.548334e-01 
7.708972e-01 
7.877290e-01 
8.052875e-01 
8.235328e-01 
8.424269e-01 
8.619336e-01 
8.820176e-01 
9.026456e-01 
9.237870e-01 
9.454133e-01 
9.674975e-01 
9.900143e-01 
1.012940e+00 
1.036252e+00 
1.059929e+00 
1.083952e+00 
1.108302e+00 
1.134460e+00 
1.109519e+00 
1.084867e+00 
1.060511e+00 
1.036468e+00 
1.012754e+00 
9.893905e-01 
9.663963e-01 
9.437935e-01 
9.216051e-01 
8.998559e-01 
8.785727e-01 
8.577845e-01 
8.375219e-01 
8.178173e-01 
7.987046e-01 
7.802196e-01 
7.624002e-01 
7.452862e-01 
7.289195e-01 
7.133438e-01 
6.986048e-01 
6.847498e-01 
6.718277e-01 
6.598885e-01 
6.489835e-01 
6.391646e-01 
6.304843e-01 
6.229934e-01 
6.167387e-01 
6.117655e-01 
6.081192e-01 
6.058486e-01 
6.050552e-01 
6.067810e-01 
6.101702e-01 
6.149775e-01 
6.211051e-01 
6.284906e-01 
6.370849e-01 
6.468412e-01 
6.577118e-01 
6.696475e-01 
6.825981e-01 
6.965134e-01 
7.113435e-01 
7.270394e-01 
7.435538e-01 
7.608409e-01 
7.788568e-01 
7.975599e-01 
8.169102e-01 
8.368699e-01 
8.574023e-01 
8.784735e-01 
9.000521e-01 
9.221089e-01 
9.446163e-01 
9.675484e-01 
9.908811e-01 
1.014592e+00 
1.038659e+00 
1.063063e+00 
1.087785e+00 
1.114945e+00 
1.089646e+00 
1.064624e+00 
1.039889e+00 
1.015457e+00 
9.913465e-01 
9.675759e-01 
9.441661e-01 
9.211390e-01 
8.985182e-01 
8.763286e-01 
8.545975e-01 
8.333542e-01 
8.126305e-01 
7.924597e-01 
7.728770e-01 
7.539197e-01 
7.356274e-01 
7.180419e-01 
7.012074e-01 
6.851701e-01 
6.699788e-01 
6.556840e-01 
6.423382e-01 
6.299958e-01 
6.187120e-01 
6.085434e-01 
5.995473e-01 
5.917800e-01 
5.852940e-01 
5.801400e-01 
5.763690e-01 
5.740362e-01 
5.732680e-01 
5.751274e-01 
5.786726e-01 
5.836733e-01 
5.900349e-01 
5.976956e-01 
6.066040e-01 
6.167095e-01 
6.279599e-01 
6.403014e-01 
6.536791e-01 
6.680384e-01 
6.833255e-01 
6.994879e-01 
7.164749e-01 
7.342380e-01 
7.527309e-01 
7.719097e-01 
7.917328e-01 
8.121606e-01 
8.331554e-01 
8.546825e-01 
8.767097e-01 
8.992071e-01 
9.221466e-01 
9.455019e-01 
9.692487e-01 
9.933638e-01 
1.017826e+00 
1.042615e+00 
1.067713e+00 
1.095928e+00 
1.070265e+00 
1.044868e+00 
1.019749e+00 
9.949232e-01 
9.704084e-01 
9.462241e-01 
9.223909e-01 
8.989310e-01 
8.758680e-01 
8.532276e-01 
8.310371e-01 
8.093263e-01 
7.881278e-01 
7.674757e-01 
7.474067e-01 
7.279594e-01 
7.091753e-01 
6.910980e-01 
6.737741e-01 
6.572526e-01 
6.415853e-01 
6.268263e-01 
6.130321e-01 
6.002613e-01 
5.885740e-01 
5.780319e-01 
5.686974e-01 
5.606330e-01 
5.538979e-01 
5.485487e-01 
5.446422e-01 
5.422411e-01 
5.414964e-01 
5.434757e-01 
5.471797e-01 
5.523834e-01 
5.589943e-01 
5.669497e-01 
5.761950e-01 
5.866751e-01 
5.983323e-01 
6.111073e-01 
6.249403e-01 
6.397717e-01 
6.555432e-01 
6.721985e-01 
6.896834e-01 
7.079466e-01 
7.269391e-01 
7.466149e-01 
7.669304e-01 
7.878443e-01 
8.093180e-01 
8.313160e-01 
8.538054e-01 
8.767558e-01 
9.001387e-01 
9.239273e-01 
9.480971e-01 
9.726249e-01 
9.974893e-01 
1.022670e+00 
1.048149e+00 
1.077364e+00 
1.051334e+00 
1.025565e+00 
1.000062e+00 
9.748417e-01 
9.499216e-01 
9.253210e-01 
9.010607e-01 
8.771629e-01 
8.536517e-01 
8.305528e-01 
8.078940e-01 
7.857053e-01 
7.640195e-01 
7.428721e-01 
7.223008e-01 
7.023458e-01 
6.830501e-01 
6.644595e-01 
6.466230e-01 
6.295926e-01 
6.134231e-01 
5.981725e-01 
5.839017e-01 
5.706740e-01 
5.585548e-01 
5.476116e-01 
5.379128e-01 
5.295277e-01 
5.225229e-01 
5.169621e-01 
5.129096e-01 
5.104372e-01 
5.097324e-01 
5.118469e-01 
5.157200e-01 
5.211401e-01 
5.280180e-01 
5.362900e-01 
5.458973e-01 
5.567790e-01 
5.688712e-01 
5.821085e-01 
5.964249e-01 
6.117558e-01 
6.280381e-01 
6.452114e-01 
6.632178e-01 
6.820029e-01 
7.015153e-01 
7.217066e-01 
7.425314e-01 
7.639467e-01 
7.859133e-01 
8.083950e-01 
8.313583e-01 
8.547722e-01 
8.786079e-01 
9.028385e-01 
9.274391e-01 
9.523867e-01 
9.776597e-01 
1.003238e+00 
1.029104e+00 
1.059312e+00 
1.032920e+00 
1.006777e+00 
9.808884e-01 
9.552712e-01 
9.299425e-01 
9.049214e-01 
8.802287e-01 
8.558867e-01 
8.319195e-01 
8.083532e-01 
7.852157e-01 
7.625372e-01 
7.403510e-01 
7.186933e-01 
6.976028e-01 
6.771214e-01 
6.572936e-01 
6.381673e-01 
6.197940e-01 
6.022284e-01 
5.855291e-01 
5.697580e-01 
5.549805e-01 
5.412653e-01 
5.286836e-01 
5.173093e-01 
5.072179e-01 
4.984857e-01 
4.911884e-01 
4.853977e-01 
4.811865e-01 
4.786369e-01 
4.779823e-01 
4.802340e-01 
4.842828e-01 
4.899326e-01 
4.970967e-01 
5.057093e-01 
5.157060e-01 
5.270187e-01 
5.395764e-01 
5.533063e-01 
5.681362e-01 
5.839954e-01 
6.008157e-01 
6.185323e-01 
6.370835e-01 
6.564118e-01 
6.764630e-01 
6.971866e-01 
7.185352e-01 
7.404648e-01 
7.629352e-01 
7.859096e-01 
8.093540e-01 
8.332370e-01 
8.575295e-01 
8.822045e-01 
9.072371e-01 
9.326044e-01 
9.582850e-01 
9.842592e-01 
1.010509e+00 
1.041799e+00 
1.015045e+00 
9.885280e-01 
9.622539e-01 
9.362383e-01 
9.104985e-01 
8.850536e-01 
8.599242e-01 
8.351325e-01 
8.107026e-01 
7.866605e-01 
7.630345e-01 
7.398550e-01 
7.171555e-01 
6.949727e-01 
6.733464e-01 
6.523197e-01 
6.319388e-01 
6.122537e-01 
5.933182e-01 
5.751902e-01 
5.579317e-01 
5.416090e-01 
5.262923e-01 
5.120561e-01 
4.989782e-01 
4.871396e-01 
4.766236e-01 
4.675152e-01 
4.598995e-01 
4.538579e-01 
4.494733e-01 
4.468400e-01 
4.462469e-01 
4.486370e-01 
4.528704e-01 
4.587661e-01 
4.662394e-01 
4.752205e-01 
4.856381e-01 
4.974155e-01 
5.104731e-01 
5.247301e-01 
5.401069e-01 
5.565264e-01 
5.739149e-01 
5.922028e-01 
6.113246e-01 
6.312193e-01 
6.518303e-01 
6.731049e-01 
6.949938e-01 
7.174521e-01 
7.404388e-01 
7.639166e-01 
7.878510e-01 
8.122102e-01 
8.369651e-01 
8.620888e-01 
8.875564e-01 
9.133452e-01 
9.394340e-01 
9.658036e-01 
9.924359e-01 
1.024849e+00 
9.977354e-01 
9.708454e-01 
9.441854e-01 
9.177708e-01 
8.916187e-01 
8.657479e-01 
8.401784e-01 
8.149325e-01 
7.900339e-01 
7.655087e-01 
7.413851e-01 
7.176940e-01 
6.944689e-01 
6.717468e-01 
6.495682e-01 
6.279774e-01 
6.070223e-01 
5.867547e-01 
5.672309e-01 
5.485117e-01 
5.306630e-01 
5.137553e-01 
4.978644e-01 
4.830707e-01 
4.694594e-01 
4.571194e-01 
4.461432e-01 
4.366254e-01 
4.286618e-01 
4.223454e-01 
4.177706e-01 
4.150455e-01 
4.145250e-01 
4.170552e-01 
4.214843e-01 
4.276454e-01 
4.354545e-01 
4.448365e-01 
4.557108e-01 
4.679907e-01 
4.815865e-01 
4.964083e-01 
5.123683e-01 
5.293824e-01 
5.473711e-01 
5.662596e-01 
5.859787e-01 
6.064640e-01 
6.276562e-01 
6.495005e-01 
6.719461e-01 
6.949473e-01 
7.184626e-01 
7.424540e-01 
7.668867e-01 
7.917289e-01 
8.169514e-01 
8.425274e-01 
8.684326e-01 
8.946442e-01 
9.211417e-01 
9.479060e-01 
9.749197e-01 
1.008490e+00 
9.810191e-01 
9.537578e-01 
9.267133e-01 
8.999004e-01 
8.733358e-01 
8.470377e-01 
8.210260e-01 
7.953223e-01 
7.699502e-01 
7.449355e-01 
7.203064e-01 
6.960938e-01 
6.723314e-01 
6.490562e-01 
6.263093e-01 
6.041359e-01 
5.825852e-01 
5.617109e-01 
5.415717e-01 
5.222314e-01 
5.037595e-01 
4.862314e-01 
4.697282e-01 
4.543371e-01 
4.401513e-01 
4.272687e-01 
4.157920e-01 
4.058271e-01 
3.974820e-01 
3.908632e-01 
3.860785e-01 
3.832519e-01 
3.828140e-01 
3.854870e-01 
3.901257e-01 
3.965757e-01 
4.047522e-01 
4.145723e-01 
4.259442e-01 
4.387691e-01 
4.529457e-01 
4.683736e-01 
4.849562e-01 
5.026017e-01 
5.212242e-01 
5.407441e-01 
5.610878e-01 
5.821880e-01 
6.039827e-01 
6.264150e-01 
6.494332e-01 
6.729910e-01 
6.970461e-01 
7.215602e-01 
7.464985e-01 
7.718291e-01 
7.975232e-01 
8.235544e-01 
8.498984e-01 
8.765332e-01 
9.034387e-01 
9.305963e-01 
9.579890e-01 
9.927576e-01 
9.649329e-01 
9.373031e-01 
9.098761e-01 
8.826662e-01 
8.556896e-01 
8.289639e-01 
8.025084e-01 
7.763443e-01 
7.504946e-01 
7.249849e-01 
6.998431e-01 
6.750999e-01 
6.507889e-01 
6.269475e-01 