# vtk DataFile Version 2.0 
Quadtree Mesh 
ASCII 
DATASET UNSTRUCTURED_GRID 
POINTS 4096 double 
-1.000000e+00 -1.000000e+00 0.000000e+00
-9.682540e-01 -1.000000e+00 0.000000e+00
-9.365079e-01 -1.000000e+00 0.000000e+00
-9.047619e-01 -1.000000e+00 0.000000e+00
-8.730159e-01 -1.000000e+00 0.000000e+00
-8.412698e-01 -1.000000e+00 0.000000e+00
-8.095238e-01 -1.000000e+00 0.000000e+00
-7.777778e-01 -1.000000e+00 0.000000e+00
-7.460317e-01 -1.000000e+00 0.000000e+00
-7.142857e-01 -1.000000e+00 0.000000e+00
-6.825397e-01 -1.000000e+00 0.000000e+00
-6.507937e-01 -1.000000e+00 0.000000e+00
-6.190476e-01 -1.000000e+00 0.000000e+00
-5.873016e-01 -1.000000e+00 0.000000e+00
-5.555556e-01 -1.000000e+00 0.000000e+00
-5.238095e-01 -1.000000e+00 0.000000e+00
-4.920635e-01 -1.000000e+00 0.000000e+00
-4.603175e-01 -1.000000e+00 0.000000e+00
-4.285714e-01 -1.000000e+00 0.000000e+00
-3.968254e-01 -1.000000e+00 0.000000e+00
-3.650794e-01 -1.000000e+00 0.000000e+00
-3.333333e-01 -1.000000e+00 0.000000e+00
-3.015873e-01 -1.000000e+00 0.000000e+00
-2.698413e-01 -1.000000e+00 0.000000e+00
-2.380952e-01 -1.000000e+00 0.000000e+00
-2.063492e-01 -1.000000e+00 0.000000e+00
-1.746032e-01 -1.000000e+00 0.000000e+00
-1.428571e-01 -1.000000e+00 0.000000e+00
-1.111111e-01 -1.000000e+00 0.000000e+00
-7.936508e-02 -1.000000e+00 0.000000e+00
-4.761905e-02 -1.000000e+00 0.000000e+00
-1.587302e-02 -1.000000e+00 0.000000e+00
1.587302e-02 -1.000000e+00 0.000000e+00
4.761905e-02 -1.000000e+00 0.000000e+00
7.936508e-02 -1.000000e+00 0.000000e+00
1.111111e-01 -1.000000e+00 0.000000e+00
1.428571e-01 -1.000000e+00 0.000000e+00
1.746032e-01 -1.000000e+00 0.000000e+00
2.063492e-01 -1.000000e+00 0.000000e+00
2.380952e-01 -1.000000e+00 0.000000e+00
2.698413e-01 -1.000000e+00 0.000000e+00
3.015873e-01 -1.000000e+00 0.000000e+00
3.333333e-01 -1.000000e+00 0.000000e+00
3.650794e-01 -1.000000e+00 0.000000e+00
3.968254e-01 -1.000000e+00 0.000000e+00
4.285714e-01 -1.000000e+00 0.000000e+00
4.603175e-01 -1.000000e+00 0.000000e+00
4.920635e-01 -1.000000e+00 0.000000e+00
5.238095e-01 -1.000000e+00 0.000000e+00
5.555556e-01 -1.000000e+00 0.000000e+00
5.873016e-01 -1.000000e+00 0.000000e+00
6.190476e-01 -1.000000e+00 0.000000e+00
6.507937e-01 -1.000000e+00 0.000000e+00
6.825397e-01 -1.000000e+00 0.000000e+00
7.142857e-01 -1.000000e+00 0.000000e+00
7.460317e-01 -1.000000e+00 0.000000e+00
7.777778e-01 -1.000000e+00 0.000000e+00
8.095238e-01 -1.000000e+00 0.000000e+00
8.412698e-01 -1.000000e+00 0.000000e+00
8.730159e-01 -1.000000e+00 0.000000e+00
9.047619e-01 -1.000000e+00 0.000000e+00
9.365079e-01 -1.000000e+00 0.000000e+00
9.682540e-01 -1.000000e+00 0.000000e+00
1.000000e+00 -1.000000e+00 0.000000e+00
-1.000000e+00 -9.682540e-01 0.000000e+00
-9.682540e-01 -9.682540e-01 0.000000e+00
-9.365079e-01 -9.682540e-01 0.000000e+00
-9.047619e-01 -9.682540e-01 0.000000e+00
-8.730159e-01 -9.682540e-01 0.000000e+00
-8.412698e-01 -9.682540e-01 0.000000e+00
-8.095238e-01 -9.682540e-01 0.000000e+00
-7.777778e-01 -9.682540e-01 0.000000e+00
-7.460317e-01 -9.682540e-01 0.000000e+00
-7.142857e-01 -9.682540e-01 0.000000e+00
-6.825397e-01 -9.682540e-01 0.000000e+00
-6.507937e-01 -9.682540e-01 0.000000e+00
-6.190476e-01 -9.682540e-01 0.000000e+00
-5.873016e-01 -9.682540e-01 0.000000e+00
-5.555556e-01 -9.682540e-01 0.000000e+00
-5.238095e-01 -9.682540e-01 0.000000e+00
-4.920635e-01 -9.682540e-01 0.000000e+00
-4.603175e-01 -9.682540e-01 0.000000e+00
-4.285714e-01 -9.682540e-01 0.000000e+00
-3.968254e-01 -9.682540e-01 0.000000e+00
-3.650794e-01 -9.682540e-01 0.000000e+00
-3.333333e-01 -9.682540e-01 0.000000e+00
-3.015873e-01 -9.682540e-01 0.000000e+00
-2.698413e-01 -9.682540e-01 0.000000e+00
-2.380952e-01 -9.682540e-01 0.000000e+00
-2.063492e-01 -9.682540e-01 0.000000e+00
-1.746032e-01 -9.682540e-01 0.000000e+00
-1.428571e-01 -9.682540e-01 0.000000e+00
-1.111111e-01 -9.682540e-01 0.000000e+00
-7.936508e-02 -9.682540e-01 0.000000e+00
-4.761905e-02 -9.682540e-01 0.000000e+00
-1.587302e-02 -9.682540e-01 0.000000e+00
1.587302e-02 -9.682540e-01 0.000000e+00
4.761905e-02 -9.682540e-01 0.000000e+00
7.936508e-02 -9.682540e-01 0.000000e+00
1.111111e-01 -9.682540e-01 0.000000e+00
1.428571e-01 -9.682540e-01 0.000000e+00
1.746032e-01 -9.682540e-01 0.000000e+00
2.063492e-01 -9.682540e-01 0.000000e+00
2.380952e-01 -9.682540e-01 0.000000e+00
2.698413e-01 -9.682540e-01 0.000000e+00
3.015873e-01 -9.682540e-01 0.000000e+00
3.333333e-01 -9.682540e-01 0.000000e+00
3.650794e-01 -9.682540e-01 0.000000e+00
3.968254e-01 -9.682540e-01 0.000000e+00
4.285714e-01 -9.682540e-01 0.000000e+00
4.603175e-01 -9.682540e-01 0.000000e+00
4.920635e-01 -9.682540e-01 0.000000e+00
5.238095e-01 -9.682540e-01 0.000000e+00
5.555556e-01 -9.682540e-01 0.000000e+00
5.873016e-01 -9.682540e-01 0.000000e+00
6.190476e-01 -9.682540e-01 0.000000e+00
6.507937e-01 -9.682540e-01 0.000000e+00
6.825397e-01 -9.682540e-01 0.000000e+00
7.142857e-01 -9.682540e-01 0.000000e+00
7.460317e-01 -9.682540e-01 0.000000e+00
7.777778e-01 -9.682540e-01 0.000000e+00
8.095238e-01 -9.682540e-01 0.000000e+00
8.412698e-01 -9.682540e-01 0.000000e+00
8.730159e-01 -9.682540e-01 0.000000e+00
9.047619e-01 -9.682540e-01 0.000000e+00
9.365079e-01 -9.682540e-01 0.000000e+00
9.682540e-01 -9.682540e-01 0.000000e+00
1.000000e+00 -9.682540e-01 0.000000e+00
-1.000000e+00 -9.365079e-01 0.000000e+00
-9.682540e-01 -9.365079e-01 0.000000e+00
-9.365079e-01 -9.365079e-01 0.000000e+00
-9.047619e-01 -9.365079e-01 0.000000e+00
-8.730159e-01 -9.365079e-01 0.000000e+00
-8.412698e-01 -9.365079e-01 0.000000e+00
-8.095238e-01 -9.365079e-01 0.000000e+00
-7.777778e-01 -9.365079e-01 0.000000e+00
-7.460317e-01 -9.365079e-01 0.000000e+00
-7.142857e-01 -9.365079e-01 0.000000e+00
-6.825397e-01 -9.365079e-01 0.000000e+00
-6.507937e-01 -9.365079e-01 0.000000e+00
-6.190476e-01 -9.365079e-01 0.000000e+00
-5.873016e-01 -9.365079e-01 0.000000e+00
-5.555556e-01 -9.365079e-01 0.000000e+00
-5.238095e-01 -9.365079e-01 0.000000e+00
-4.920635e-01 -9.365079e-01 0.000000e+00
-4.603175e-01 -9.365079e-01 0.000000e+00
-4.285714e-01 -9.365079e-01 0.000000e+00
-3.968254e-01 -9.365079e-01 0.000000e+00
-3.650794e-01 -9.365079e-01 0.000000e+00
-3.333333e-01 -9.365079e-01 0.000000e+00
-3.015873e-01 -9.365079e-01 0.000000e+00
-2.698413e-01 -9.365079e-01 0.000000e+00
-2.380952e-01 -9.365079e-01 0.000000e+00
-2.063492e-01 -9.365079e-01 0.000000e+00
-1.746032e-01 -9.365079e-01 0.000000e+00
-1.428571e-01 -9.365079e-01 0.000000e+00
-1.111111e-01 -9.365079e-01 0.000000e+00
-7.936508e-02 -9.365079e-01 0.000000e+00
-4.761905e-02 -9.365079e-01 0.000000e+00
-1.587302e-02 -9.365079e-01 0.000000e+00
1.587302e-02 -9.365079e-01 0.000000e+00
4.761905e-02 -9.365079e-01 0.000000e+00
7.936508e-02 -9.365079e-01 0.000000e+00
1.111111e-01 -9.365079e-01 0.000000e+00
1.428571e-01 -9.365079e-01 0.000000e+00
1.746032e-01 -9.365079e-01 0.000000e+00
2.063492e-01 -9.365079e-01 0.000000e+00
2.380952e-01 -9.365079e-01 0.000000e+00
2.698413e-01 -9.365079e-01 0.000000e+00
3.015873e-01 -9.365079e-01 0.000000e+00
3.333333e-01 -9.365079e-01 0.000000e+00
3.650794e-01 -9.365079e-01 0.000000e+00
3.968254e-01 -9.365079e-01 0.000000e+00
4.285714e-01 -9.365079e-01 0.000000e+00
4.603175e-01 -9.365079e-01 0.000000e+00
4.920635e-01 -9.365079e-01 0.000000e+00
5.238095e-01 -9.365079e-01 0.000000e+00
5.555556e-01 -9.365079e-01 0.000000e+00
5.873016e-01 -9.365079e-01 0.000000e+00
6.190476e-01 -9.365079e-01 0.000000e+00
6.507937e-01 -9.365079e-01 0.000000e+00
6.825397e-01 -9.365079e-01 0.000000e+00
7.142857e-01 -9.365079e-01 0.000000e+00
7.460317e-01 -9.365079e-01 0.000000e+00
7.777778e-01 -9.365079e-01 0.000000e+00
8.095238e-01 -9.365079e-01 0.000000e+00
8.412698e-01 -9.365079e-01 0.000000e+00
8.730159e-01 -9.365079e-01 0.000000e+00
9.047619e-01 -9.365079e-01 0.000000e+00
9.365079e-01 -9.365079e-01 0.000000e+00
9.682540e-01 -9.365079e-01 0.000000e+00
1.000000e+00 -9.365079e-01 0.000000e+00
-1.000000e+00 -9.047619e-01 0.000000e+00
-9.682540e-01 -9.047619e-01 0.000000e+00
-9.365079e-01 -9.047619e-01 0.000000e+00
-9.047619e-01 -9.047619e-01 0.000000e+00
-8.730159e-01 -9.047619e-01 0.000000e+00
-8.412698e-01 -9.047619e-01 0.000000e+00
-8.095238e-01 -9.047619e-01 0.000000e+00
-7.777778e-01 -9.047619e-01 0.000000e+00
-7.460317e-01 -9.047619e-01 0.000000e+00
-7.142857e-01 -9.047619e-01 0.000000e+00
-6.825397e-01 -9.047619e-01 0.000000e+00
-6.507937e-01 -9.047619e-01 0.000000e+00
-6.190476e-01 -9.047619e-01 0.000000e+00
-5.873016e-01 -9.047619e-01 0.000000e+00
-5.555556e-01 -9.047619e-01 0.000000e+00
-5.238095e-01 -9.047619e-01 0.000000e+00
-4.920635e-01 -9.047619e-01 0.000000e+00
-4.603175e-01 -9.047619e-01 0.000000e+00
-4.285714e-01 -9.047619e-01 0.000000e+00
-3.968254e-01 -9.047619e-01 0.000000e+00
-3.650794e-01 -9.047619e-01 0.000000e+00
-3.333333e-01 -9.047619e-01 0.000000e+00
-3.015873e-01 -9.047619e-01 0.000000e+00
-2.698413e-01 -9.047619e-01 0.000000e+00
-2.380952e-01 -9.047619e-01 0.000000e+00
-2.063492e-01 -9.047619e-01 0.000000e+00
-1.746032e-01 -9.047619e-01 0.000000e+00
-1.428571e-01 -9.047619e-01 0.000000e+00
-1.111111e-01 -9.047619e-01 0.000000e+00
-7.936508e-02 -9.047619e-01 0.000000e+00
-4.761905e-02 -9.047619e-01 0.000000e+00
-1.587302e-02 -9.047619e-01 0.000000e+00
1.587302e-02 -9.047619e-01 0.000000e+00
4.761905e-02 -9.047619e-01 0.000000e+00
7.936508e-02 -9.047619e-01 0.000000e+00
1.111111e-01 -9.047619e-01 0.000000e+00
1.428571e-01 -9.047619e-01 0.000000e+00
1.746032e-01 -9.047619e-01 0.000000e+00
2.063492e-01 -9.047619e-01 0.000000e+00
2.380952e-01 -9.047619e-01 0.000000e+00
2.698413e-01 -9.047619e-01 0.000000e+00
3.015873e-01 -9.047619e-01 0.000000e+00
3.333333e-01 -9.047619e-01 0.000000e+00
3.650794e-01 -9.047619e-01 0.000000e+00
3.968254e-01 -9.047619e-01 0.000000e+00
4.285714e-01 -9.047619e-01 0.000000e+00
4.603175e-01 -9.047619e-01 0.000000e+00
4.920635e-01 -9.047619e-01 0.000000e+00
5.238095e-01 -9.047619e-01 0.000000e+00
5.555556e-01 -9.047619e-01 0.000000e+00
5.873016e-01 -9.047619e-01 0.000000e+00
6.190476e-01 -9.047619e-01 0.000000e+00
[...]
POINT_DATA 4096 
SCALARS concentration double 1 
LOOKUP_TABLE default 
1.439018e+00 
1.418881e+00 
1.399107e+00 
1.379703e+00 
1.360681e+00 
1.342054e+00 
1.323838e+00 
1.306050e+00 
1.288706e+00 
1.271823e+00 
1.255418e+00 
1.239508e+00 
1.224111e+00 
1.209244e+00 
1.194926e+00 
1.181176e+00 
1.168013e+00 
1.155455e+00 
1.143523e+00 
1.132235e+00 
1.121611e+00 
1.111670e+00 
1.102433e+00 
1.093918e+00 
1.086146e+00 
1.079137e+00 
1.072910e+00 
1.067479e+00 
1.062857e+00 
1.059057e+00 
1.056094e+00 
1.053981e+00 
1.052740e+00 
1.052469e+00 
1.053453e+00 
1.055662e+00 
1.058954e+00 
1.063225e+00 
1.068412e+00 
1.074465e+00 
1.081348e+00 
1.089032e+00 
1.097492e+00 
1.106705e+00 
1.116650e+00 
1.127307e+00 
1.138655e+00 
1.150674e+00 
1.163344e+00 
1.176644e+00 
1.190556e+00 
1.205058e+00 
1.220132e+00 
1.235758e+00 
1.251917e+00 
1.268591e+00 
1.285761e+00 
1.303410e+00 
1.321519e+00 
1.340070e+00 
1.359046e+00 
1.378433e+00 
1.398215e+00 
1.418378e+00 
1.414502e+00 
1.394068e+00 
1.373997e+00 
1.354293e+00 
1.334971e+00 
1.316043e+00 
1.297525e+00 
1.279434e+00 
1.261789e+00 
1.244605e+00 
1.227901e+00 
1.211694e+00 
1.196002e+00 
1.180845e+00 
1.166242e+00 
1.152212e+00 
1.138775e+00 
1.125950e+00 
1.113760e+00 
1.102223e+00 
1.091361e+00 
1.081194e+00 
1.071743e+00 
1.063028e+00 
1.055071e+00 
1.047893e+00 
1.041514e+00 
1.035950e+00 
1.031216e+00 
1.027325e+00 
1.024293e+00 
1.022136e+00 
1.020874e+00 
1.020632e+00 
1.021706e+00 
1.024033e+00 
1.027450e+00 
1.031858e+00 
1.037192e+00 
1.043406e+00 
1.050464e+00 
1.058337e+00 
1.067001e+00 
1.076431e+00 
1.086606e+00 
1.097504e+00 
1.109105e+00 
1.121386e+00 
1.134326e+00 
1.147905e+00 
1.162101e+00 
1.176894e+00 
1.192263e+00 
1.208188e+00 
1.224650e+00 
1.241629e+00 
1.259106e+00 
1.277062e+00 
1.295478e+00 
1.314335e+00 
1.333618e+00 
1.353310e+00 
1.373397e+00 
1.393863e+00 
1.390236e+00 
1.369499e+00 
1.349124e+00 
1.329115e+00 
1.309486e+00 
1.290249e+00 
1.271422e+00 
1.253022e+00 
1.235066e+00 
1.217573e+00 
1.200560e+00 
1.184047e+00 
1.168052e+00 
1.152595e+00 
1.137696e+00 
1.123376e+00 
1.109655e+00 
1.096554e+00 
1.084095e+00 
1.072299e+00 
1.061189e+00 
1.050786e+00 
1.041111e+00 
1.032188e+00 
1.024037e+00 
1.016681e+00 
1.010143e+00 
1.004440e+00 
9.995881e-01 
9.956019e-01 
9.924977e-01 
9.902923e-01 
9.890089e-01 
9.888000e-01 
9.899726e-01 
9.924187e-01 
9.959639e-01 
1.000510e+00 
1.005997e+00 
1.012378e+00 
1.019618e+00 
1.027688e+00 
1.036563e+00 
1.046219e+00 
1.056633e+00 
1.067782e+00 
1.079644e+00 
1.092196e+00 
1.105416e+00 
1.119282e+00 
1.133772e+00 
1.148863e+00 
1.164536e+00 
1.180768e+00 
1.197540e+00 
1.214830e+00 
1.232620e+00 
1.250889e+00 
1.269617e+00 
1.288786e+00 
1.308380e+00 
1.328383e+00 
1.348777e+00 
1.369549e+00 
1.366230e+00 
1.345185e+00 
1.324500e+00 
1.304179e+00 
1.284235e+00 
1.264684e+00 
1.245540e+00 
1.226822e+00 
1.208548e+00 
1.190736e+00 
1.173406e+00 
1.156577e+00 
1.140269e+00 
1.124502e+00 
1.109298e+00 
1.094676e+00 
1.080661e+00 
1.067272e+00 
1.054534e+00 
1.042469e+00 
1.031100e+00 
1.020450e+00 
1.010542e+00 
1.001400e+00 
9.930462e-01 
9.855048e-01 
9.787996e-01 
9.729502e-01 
9.679739e-01 
9.638870e-01 
9.607066e-01 
9.584507e-01 
9.571443e-01 
9.569745e-01 
9.582525e-01 
9.608191e-01 
9.644945e-01 
9.691840e-01 
9.748282e-01 
9.813824e-01 
9.888121e-01 
9.970883e-01 
1.006185e+00 
1.016077e+00 
1.026740e+00 
1.038151e+00 
1.050285e+00 
1.063119e+00 
1.076630e+00 
1.090794e+00 
1.105587e+00 
1.120988e+00 
1.136974e+00 
1.153522e+00 
1.170612e+00 
1.188223e+00 
1.206334e+00 
1.224923e+00 
1.243971e+00 
1.263460e+00 
1.283372e+00 
1.303690e+00 
1.324398e+00 
1.345481e+00 
1.342495e+00 
1.321136e+00 
1.300135e+00 
1.279495e+00 
1.259231e+00 
1.239357e+00 
1.219889e+00 
1.200845e+00 
1.182244e+00 
1.164106e+00 
1.146450e+00 
1.129295e+00 
1.112664e+00 
1.096577e+00 
1.081055e+00 
1.066122e+00 
1.051801e+00 
1.038114e+00 
1.025085e+00 
1.012739e+00 
1.001099e+00 
9.901914e-01 
9.800395e-01 
9.706681e-01 
9.621019e-01 
9.543657e-01 
9.474847e-01 
9.414813e-01 
9.363742e-01 
9.321812e-01 
9.289204e-01 
9.266110e-01 
9.252799e-01 
9.251556e-01 
9.265448e-01 
9.292336e-01 
9.330421e-01 
9.378792e-01 
9.436871e-01 
9.504222e-01 
9.580503e-01 
9.665421e-01 
9.758705e-01 
9.860095e-01 
9.969337e-01 
1.008618e+00 
1.021036e+00 
1.034164e+00 
1.047977e+00 
1.062450e+00 
1.077558e+00 
1.093279e+00 
1.109588e+00 
1.126463e+00 
1.143881e+00 
1.161821e+00 
1.180261e+00 
1.199178e+00 
1.218554e+00 
1.238370e+00 
1.258606e+00 
1.279247e+00 
1.300275e+00 
1.321675e+00 
1.319043e+00 
1.297365e+00 
1.276042e+00 
1.255078e+00 
1.234486e+00 
1.214282e+00 
1.194483e+00 
1.175105e+00 
1.156169e+00 
1.137695e+00 
1.119703e+00 
1.102213e+00 
1.085248e+00 
1.068830e+00 
1.052980e+00 
1.037724e+00 
1.023085e+00 
1.009087e+00 
9.957552e-01 
9.831158e-01 
9.711942e-01 
9.600166e-01 
9.496089e-01 
9.399973e-01 
9.312080e-01 
9.232671e-01 
9.162013e-01 
9.100357e-01 
9.047907e-01 
9.004856e-01 
8.971398e-01 
8.947739e-01 
8.934162e-01 
8.933443e-01 
8.948486e-01 
8.976615e-01 
9.016065e-01 
9.065963e-01 
9.125745e-01 
9.194988e-01 
9.273348e-01 
9.360527e-01 
9.456243e-01 
9.560222e-01 
9.672194e-01 
9.791890e-01 
9.919042e-01 
1.005338e+00 
1.019465e+00 
1.034259e+00 
1.049694e+00 
1.065746e+00 
1.082389e+00 
1.099601e+00 
1.117357e+00 
1.135635e+00 
1.154413e+00 
1.173668e+00 
1.193379e+00 
1.213528e+00 
1.234096e+00 
1.255066e+00 
1.276420e+00 
1.298142e+00 
1.295892e+00 
1.273891e+00 
1.252241e+00 
1.230945e+00 
1.210019e+00 
1.189477e+00 
1.169338e+00 
1.149619e+00 
1.130339e+00 
1.111519e+00 
1.093181e+00 
1.075346e+00 
1.058036e+00 
1.041275e+00 
1.025086e+00 
1.009494e+00 
9.945244e-01 
9.802027e-01 
9.665556e-01 
9.536100e-01 
9.413932e-01 
9.299329e-01 
9.192570e-01 
9.093931e-01 
9.003692e-01 
8.922131e-01 
8.849529e-01 
8.786161e-01 
8.732254e-01 
8.688019e-01 
8.653663e-01 
8.629406e-01 
8.615544e-01 
8.615418e-01 
8.631633e-01 
8.661022e-01 
8.701874e-01 
8.753355e-01 
8.814915e-01 
8.886139e-01 
8.966683e-01 
9.056237e-01 
9.154507e-01 
9.261202e-01 
9.376036e-01 
9.498722e-01 
9.628974e-01 
9.766511e-01 
9.911055e-01 
1.006233e+00 
1.022007e+00 
1.038401e+00 
1.055390e+00 
1.072949e+00 
1.091053e+00 
1.109679e+00 
1.128804e+00 
1.148404e+00 
1.168460e+00 
1.188950e+00 
1.209857e+00 
1.231161e+00 
1.252847e+00 
1.274897e+00 
1.273075e+00 
1.250747e+00 
1.228761e+00 
1.207127e+00 
1.185858e+00 
1.164970e+00 
1.144482e+00 
1.124411e+00 
1.104777e+00 
1.085601e+00 
1.066906e+00 
1.048713e+00 
1.031047e+00 
1.013930e+00 
9.973891e-01 
9.814485e-01 
9.661350e-01 
9.514760e-01 
9.374993e-01 
9.242334e-01 
9.117075e-01 
8.999508e-01 
8.889930e-01 
8.788638e-01 
8.695930e-01 
8.612100e-01 
8.537449e-01 
8.472273e-01 
8.416827e-01 
8.371340e-01 
8.336036e-01 
8.311148e-01 
8.296984e-01 
8.297499e-01 
8.314879e-01 
8.345540e-01 
8.387832e-01 
8.440956e-01 
8.504377e-01 
8.577683e-01 
8.660523e-01 
8.752578e-01 
8.853535e-01 
8.963086e-01 
9.080924e-01 
9.206744e-01 
9.340242e-01 
9.481118e-01 
9.629076e-01 
9.783828e-01 
9.945092e-01 
1.011259e+00 
1.028606e+00 
1.046524e+00 
1.064987e+00 
1.083972e+00 
1.103453e+00 
1.123409e+00 
1.143816e+00 
1.164656e+00 
1.185909e+00 
1.207556e+00 
1.229579e+00 
1.251962e+00 
1.250609e+00 
1.227943e+00 
1.205615e+00 
1.183634e+00 
1.162014e+00 
1.140771e+00 
1.119925e+00 
1.099493e+00 
1.079495e+00 
1.059953e+00 
1.040889e+00 
1.022328e+00 
1.004293e+00 
9.868091e-01 
9.699025e-01 
9.535999e-01 
9.379291e-01 
9.229187e-01 
9.085983e-01 
8.949979e-01 
8.821485e-01 
8.700811e-01 
8.588275e-01 
8.484194e-01 
8.388885e-01 
8.302666e-01 
8.225854e-01 
8.158768e-01 
8.101694e-01 
8.054883e-01 
8.018575e-01 
7.993021e-01 
7.978538e-01 
7.979704e-01 
7.998200e-01 
8.030139e-01 
8.073911e-01 
8.128747e-01 
8.194121e-01 
8.269619e-01 
8.354882e-01 
8.449574e-01 
8.553365e-01 
8.665924e-01 
8.786924e-01 
8.916037e-01 
9.052940e-01 
9.197313e-01 
9.348844e-01 
9.507228e-01 
9.672165e-01 
9.843369e-01 
1.002056e+00 
1.020346e+00 
1.039182e+00 
1.058538e+00 
1.078388e+00 
1.098709e+00 
1.119480e+00 
1.140679e+00 
1.162288e+00 
1.184286e+00 
1.206656e+00 
1.229380e+00 
1.228454e+00 
1.205444e+00 
1.182770e+00 
1.160438e+00 
1.138462e+00 
1.116859e+00 
1.095648e+00 
1.074848e+00 
1.054479e+00 
1.034562e+00 
1.015121e+00 
9.961806e-01 
9.777659e-01 
9.599028e-01 
9.426183e-01 
9.259406e-01 
9.098986e-01 
8.945227e-01 
8.798438e-01 
8.658938e-01 
8.527056e-01 
8.403124e-01 
8.287478e-01 
8.180459e-01 
8.082407e-01 
7.993663e-01 
7.914566e-01 
7.845455e-01 
7.786653e-01 
7.738434e-01 
7.701059e-01 
7.674796e-01 
7.659978e-01 
7.661962e-01 
7.681675e-01 
7.714964e-01 
7.760292e-01 
7.816933e-01 
7.884367e-01 
7.962180e-01 
8.050003e-01 
8.147479e-01 
8.254256e-01 
8.369982e-01 
8.494303e-01 
8.626870e-01 
8.767337e-01 
8.915364e-01 
9.070621e-01 
9.232783e-01 
9.401537e-01 
9.576581e-01 
9.757622e-01 
9.944379e-01 
1.013658e+00 
1.033395e+00 
1.053624e+00 
1.074321e+00 
1.095464e+00 
1.117032e+00 
1.139004e+00 
1.161361e+00 
1.184085e+00 
1.207158e+00 
1.206653e+00 
1.183298e+00 
1.160273e+00 
1.137583e+00 
1.115245e+00 
1.093274e+00 
1.071691e+00 
1.050514e+00 
1.029764e+00 
1.009462e+00 
9.896337e-01 
9.703031e-01 
9.514967e-01 
9.332414e-01 
9.155656e-01 
8.984984e-01 
8.820705e-01 
8.663136e-01 
8.512604e-01 
8.369448e-01 
8.234015e-01 
8.106658e-01 
7.987740e-01 
7.877624e-01 
7.776676e-01 
7.685261e-01 
7.603745e-01 
7.532489e-01 
7.471851e-01 
7.422135e-01 
7.383626e-01 
7.356613e-01 
7.341444e-01 
7.344325e-01 
7.365271e-01 
7.399940e-01 
7.446887e-01 
7.505418e-01 
7.575022e-01 
7.655279e-01 
7.745802e-01 
7.846213e-01 
7.956134e-01 
8.075184e-01 
8.202987e-01 
8.339167e-01 
8.483355e-01 
8.635190e-01 
8.794318e-01 
8.960398e-01 
9.133101e-01 
9.312108e-01 
9.497115e-01 
9.687828e-01 
9.883961e-01 
1.008523e+00 
1.029139e+00 
1.050219e+00 
1.071741e+00 
1.093682e+00 
1.116023e+00 
1.138743e+00 
1.161824e+00 
1.185248e+00 
1.185226e+00 
1.161521e+00 
1.138140e+00 
1.115087e+00 
1.092380e+00 
1.070035e+00 
1.048071e+00 
1.026509e+00 
1.005368e+00 
9.846726e-01 
9.644454e-01 
9.447130e-01 
9.255024e-01 
9.068418e-01 
8.887606e-01 
8.712893e-01 
8.544600e-01 
8.383060e-01 
8.228619e-01 
8.081634e-01 
7.942476e-01 
7.811521e-01 
7.689155e-01 
7.575769e-01 
7.471758e-01 
7.377515e-01 
7.293432e-01 
7.219901e-01 
7.157309e-01 
7.105999e-01 
7.066284e-01 
7.038475e-01 
7.022940e-01 
7.026802e-01 
7.048987e-01 
7.085074e-01 
7.133713e-01 
7.194236e-01 
7.266136e-01 
7.348981e-01 
7.442364e-01 
7.545878e-01 
7.659117e-01 
7.781672e-01 
7.913136e-01 
8.053107e-01 
8.201190e-01 
8.357001e-01 
8.520165e-01 
8.690321e-01 
8.867122e-01 
9.050235e-01 
9.239340e-01 
9.434132e-01 
9.634311e-01 
9.839592e-01 
1.004971e+00 
1.026443e+00 
1.048351e+00 
1.070673e+00 
1.093389e+00 
1.116477e+00 
1.139920e+00 
1.163699e+00 
1.164189e+00 
1.140131e+00 
1.116389e+00 
1.092968e+00 
1.069886e+00 
1.047159e+00 
1.024808e+00 
1.002851e+00 
9.813116e-01 
9.602115e-01 
9.395751e-01 
9.194293e-01 
8.998019e-01 
8.807225e-01 
8.622214e-01 
8.443306e-01 
8.270838e-01 
8.105158e-01 
7.946632e-01 
7.795638e-01 
7.652569e-01 
7.517828e-01 
7.391827e-01 
7.274987e-01 
7.167732e-01 
7.070487e-01 
6.983678e-01 
6.907726e-01 
6.843053e-01 
6.790043e-01 
6.749041e-01 
6.720389e-01 
6.704473e-01 
6.709395e-01 
6.732818e-01 
6.770371e-01 
6.820787e-01 
6.883417e-01 
6.957753e-01 
7.043347e-01 
7.139763e-01 
7.246565e-01 
7.363312e-01 
7.489563e-01 
7.624880e-01 
7.768832e-01 
7.920996e-01 
8.080962e-01 
8.248334e-01 
8.422731e-01 
8.603786e-01 
8.791151e-01 
8.984492e-01 
9.183490e-01 
9.387832e-01 
9.597231e-01 
9.811419e-01 
1.003014e+00 
1.025317e+00 
1.048027e+00 
1.071123e+00 
1.094586e+00 
1.118395e+00 
1.142533e+00 
1.143563e+00 
1.119147e+00 
1.095039e+00 
1.071246e+00 
1.047783e+00 
1.024668e+00 
1.001921e+00 
9.795624e-01 
9.576142e-01 
9.360997e-01 
9.150435e-01 
8.944725e-01 
8.744156e-01 
8.549034e-01 
8.359676e-01 
8.176416e-01 
7.999604e-01 
7.829607e-01 
7.666812e-01 
7.511617e-01 
7.364441e-01 
7.225713e-01 
7.095875e-01 
6.975380e-01 
6.864684e-01 
6.764250e-01 
6.674538e-01 
6.596007e-01 
6.529112e-01 
6.474285e-01 
6.431910e-01 
6.402360e-01 
6.386048e-01 
6.392093e-01 
6.416759e-01 
6.455835e-01 
6.508126e-01 
6.572993e-01 
6.649923e-01 
6.738442e-01 
6.838083e-01 
6.948373e-01 
7.068834e-01 
7.198989e-01 
7.338365e-01 
7.486499e-01 
7.642939e-01 
7.807250e-01 
7.979010e-01 
8.157818e-01 
8.343289e-01 
8.535057e-01 
8.732774e-01 
8.936105e-01 
9.144731e-01 
9.358356e-01 
9.576709e-01 
9.799532e-01 
1.002658e+00 
1.025763e+00 
1.049247e+00 
1.073088e+00 
1.097269e+00 
1.121770e+00 
1.123367e+00 
1.098591e+00 
1.074115e+00 
1.049944e+00 
1.026094e+00 
1.002585e+00 
9.794352e-01 
9.566665e-01 
9.343008e-01 
9.123618e-01 
8.908748e-01 
8.698668e-01 
8.493674e-01 
8.294083e-01 
8.100224e-01 
7.912446e-01 
7.731115e-01 
7.556616e-01 
7.389355e-01 
7.229756e-01 
7.078261e-01 
6.935330e-01 
6.801437e-01 
6.677069e-01 
6.562719e-01 
6.458889e-01 
6.366080e-01 
6.284791e-01 
6.215520e-01 
6.158748e-01 
6.114901e-01 
6.084394e-01 
6.067671e-01 
6.074873e-01 
6.100803e-01 
6.141475e-01 
6.195752e-01 
6.263004e-01 
6.342701e-01 
6.434342e-01 
6.537419e-01 
6.651417e-01 
6.775816e-01 
6.910098e-01 
7.053753e-01 
7.206284e-01 
7.367208e-01 
7.536060e-01 
7.712397e-01 
7.895793e-01 
8.085844e-01 
8.282169e-01 
8.484403e-01 
8.692198e-01 
8.905227e-01 
9.123189e-01 
9.345805e-01 
9.572813e-01 
9.803966e-01 
1.003903e+00 
1.027780e+00 
1.052005e+00 
1.076561e+00 
1.101428e+00 
1.103644e+00 
1.078507e+00 
1.053657e+00 
1.029102e+00 
1.004860e+00 
9.809491e-01 
9.573890e-01 
9.342011e-01 
9.114078e-01 
8.890333e-01 
8.671033e-01 
8.456453e-01 
8.246893e-01 
8.042679e-01 
7.844155e-01 
7.651681e-01 
7.465640e-01 
7.286436e-01 
7.114497e-01 
6.950271e-01 
6.794227e-01 
6.646857e-01 
6.508669e-01 
6.380186e-01 
6.261945e-01 
6.154490e-01 
6.058367e-01 
5.974124e-01 
5.902304e-01 
5.843440e-01 
5.798012e-01 
5.766483e-01 
5.749337e-01 
5.757719e-01 
5.784957e-01 
5.827312e-01 
5.883706e-01 
5.953509e-01 
6.036171e-01 
6.131151e-01 
6.237896e-01 
6.355843e-01 
6.484424e-01 
6.623076e-01 
6.771249e-01 
6.928408e-01 
7.094035e-01 
7.267639e-01 
7.448748e-01 
7.636916e-01 
7.831719e-01 
8.032758e-01 
8.239653e-01 
8.452044e-01 
8.669598e-01 
8.892006e-01 
9.118984e-01 
9.350263e-01 
9.585595e-01 
9.824745e-01 
1.006749e+00 
1.031364e+00 
1.056299e+00 
1.081535e+00 
1.084420e+00 
1.058914e+00 
1.033684e+00 
1.008740e+00 
9.840991e-01 
9.597796e-01 
9.358013e-01 
9.121856e-01 
8.889554e-01 
8.661351e-01 
8.437507e-01 
8.218303e-01 
8.004045e-01 
7.795064e-01 
7.591715e-01 
7.394374e-01 
7.203440e-01 
7.019336e-01 
6.842509e-01 
6.673435e-01 
6.512612e-01 
6.360563e-01 
6.217834e-01 
6.084989e-01 
5.962609e-01 
5.851286e-01 
5.751620e-01 
5.664210e-01 
5.589652e-01 
5.528538e-01 
5.481410e-01 
5.448784e-01 
5.431194e-01 
5.440572e-01 
5.469119e-01 
5.513239e-01 
5.571889e-01 
5.644429e-01 
5.730275e-01 
5.828840e-01 
5.939517e-01 
6.061685e-01 
6.194725e-01 
6.338023e-01 
6.490984e-01 
6.653030e-01 
6.823612e-01 
7.002205e-01 
7.188312e-01 
7.381462e-01 
7.581213e-01 
7.787149e-01 
7.998873e-01 
8.216016e-01 
8.438237e-01 
8.665222e-01 
8.896681e-01 
9.132342e-01 
9.371952e-01 
9.615276e-01 
9.862093e-01 
1.011220e+00 
1.036540e+00 
1.062152e+00 
1.065643e+00 
1.039765e+00 
1.014157e+00 
9.888243e-01 
9.637838e-01 
9.390539e-01 
9.146545e-01 
8.906070e-01 
8.669343e-01 
8.436612e-01 
8.208141e-01 
7.984216e-01 
7.765145e-01 
7.551266e-01 
7.342945e-01 
7.140571e-01 
6.944560e-01 
6.755352e-01 
6.573420e-01 
6.399262e-01 
6.233410e-01 
6.076420e-01 
5.928878e-01 
5.791393e-01 
5.664596e-01 
5.549133e-01 
5.445661e-01 
5.354840e-01 
5.277329e-01 
5.213781e-01 
5.164814e-01 
5.131008e-01 
5.112963e-01 
5.123521e-01 
5.153491e-01 
5.199514e-01 
5.260597e-01 
5.336089e-01 
5.425367e-01 
5.527785e-01 
5.642675e-01 
5.769352e-01 
5.907137e-01 
6.055362e-01 
6.213380e-01 
6.380573e-01 
6.556352e-01 
6.740160e-01 
6.931473e-01 
7.129798e-01 
7.334675e-01 
7.545668e-01 
7.762366e-01 
7.984393e-01 
8.211403e-01 
8.443077e-01 
8.679117e-01 
8.919250e-01 
9.163220e-01 
9.410790e-01 
9.661741e-01 
9.915868e-01 
1.017298e+00 
1.043290e+00 
1.047374e+00 
1.021129e+00 
9.951409e-01 
9.694174e-01 
9.439745e-01 
9.188306e-01 
8.940053e-01 
8.695200e-01 
8.453978e-01 
8.216636e-01 
7.983440e-01 
7.754682e-01 
7.530673e-01 
7.311756e-01 
7.098305e-01 
6.890722e-01 
6.689438e-01 
6.494913e-01 
6.307642e-01 
6.128152e-01 
5.957003e-01 
5.794791e-01 
5.642144e-01 
5.499719e-01 
5.368202e-01 
5.248300e-01 
5.140733e-01 
5.046231e-01 
4.965525e-01 
4.899341e-01 
4.848379e-01 
4.813300e-01 
4.794784e-01 
4.806534e-01 
4.837991e-01 
4.886044e-01 
4.949745e-01 
5.028423e-01 
5.121401e-01 
5.227965e-01 
5.347372e-01 
5.478867e-01 
5.621701e-01 
5.775146e-01 
5.938502e-01 
6.111103e-01 
6.292321e-01 
6.481565e-01 
6.678284e-01 
6.881961e-01 
7.092117e-01 
7.308300e-01 
7.530088e-01 
7.757099e-01 
7.988981e-01 
8.225408e-01 
8.466081e-01 
8.710722e-01 
8.959074e-01 
9.210902e-01 
9.465985e-01 
9.724122e-01 
9.985124e-01 
1.024882e+00 
1.029641e+00 
1.003028e+00 
9.766607e-01 
9.505452e-01 
9.246980e-01 
8.991371e-01 
8.738821e-01 
8.489541e-01 
8.243762e-01 
8.001732e-01 
7.763723e-01 
7.530026e-01 
7.300958e-01 
7.076866e-01 
6.858127e-01 
6.645158e-01 
6.438403e-01 
6.238343e-01 
6.045493e-01 
5.860407e-01 
5.683681e-01 
5.515947e-01 
5.357879e-01 
5.210188e-01 
5.073619e-01 
4.948945e-01 
4.836962e-01 
4.738478e-01 
4.654305e-01 
4.585255e-01 
4.532122e-01 
4.495662e-01 
4.476661e-01 
4.489606e-01 
4.522627e-01 
4.572860e-01 
4.639396e-01 
4.721530e-01 
4.818517e-01 
4.929560e-01 
5.053828e-01 
5.190486e-01 
5.338709e-01 
5.497701e-01 
5.666705e-01 
5.845004e-01 
6.031928e-01 
6.226852e-01 
6.429196e-01 
6.638421e-01 
6.854029e-01 
7.075552e-01 
7.302562e-01 
7.534671e-01 
7.771521e-01 
8.012782e-01 
8.258151e-01 
8.507351e-01 
8.760124e-01 
9.016235e-01 
9.275466e-01 
9.537618e-01 
9.802506e-01 
1.006996e+00 
1.012468e+00 
9.854893e-01 
9.587426e-01 
9.322350e-01 
9.059826e-01 
8.800029e-01 
8.543152e-01 
8.289405e-01 
8.039017e-01 
7.792236e-01 
7.549331e-01 
7.310598e-01 
7.076356e-01 
6.846953e-01 
6.622775e-01 
6.404243e-01 
6.191819e-01 
5.985999e-01 
5.787322e-01 
5.596369e-01 
5.413768e-01 
5.240193e-01 
5.076366e-01 
4.923054e-01 
4.781069e-01 
4.651258e-01 
4.534500e-01 
4.431694e-01 
4.343747e-01 
4.271569e-01 
4.216063e-01 
4.178098e-01 
4.158597e-01 
4.172736e-01 
4.207410e-01 
4.259997e-01 
4.329616e-01 
4.415514e-01 
4.516859e-01 
4.632753e-01 
4.762266e-01 
4.904466e-01 
5.058447e-01 
5.223339e-01 
5.398321e-01 
5.582624e-01 
5.775534e-01 
5.976391e-01 
6.184586e-01 
6.399560e-01 
6.620793e-01 
6.847807e-01 
7.080170e-01 
7.317486e-01 
7.559394e-01 
7.805563e-01 
8.055688e-01 
8.309491e-01 
8.566717e-01 
8.827132e-01 
9.090523e-01 
9.356691e-01 
9.625457e-01 
9.896654e-01 
9.958809e-01 
9.685383e-01 
9.414140e-01 
9.145152e-01 
8.878576e-01 
8.614584e-01 
8.353365e-01 
8.095124e-01 
7.840087e-01 
7.588499e-01 
7.340629e-01 
7.096771e-01 
6.857246e-01 
6.622407e-01 
6.392641e-01 
6.168376e-01 
5.950085e-01 
5.738280e-01 
5.533523e-01 
5.336420e-01 
5.147632e-01 
4.967877e-01 
4.797927e-01 
4.638610e-01 
4.490809e-01 
4.355456e-01 
4.233523e-01 
4.126012e-01 
4.033941e-01 
3.958336e-01 
3.900223e-01 
3.860611e-01 
3.840592e-01 
3.855924e-01 
3.892356e-01 
3.947497e-01 
4.020486e-01 
4.110501e-01 
4.216601e-01 
4.337765e-01 
4.472946e-01 
4.621107e-01 
4.781246e-01 
4.952414e-01 
5.133723e-01 
5.324351e-01 
5.523537e-01 
5.730586e-01 
5.944862e-01 
6.165781e-01 
6.392810e-01 
6.625463e-01 
6.863301e-01 
7.105926e-01 
7.352974e-01 
7.604113e-01 
7.859041e-01 
8.117481e-01 
8.379180e-01 
8.643908e-01 
8.911456e-01 
9.181631e-01 
9.454257e-01 
9.729173e-01 
9.799063e-01 
9.522045e-01 
9.247052e-01 
8.974173e-01 
8.703560e-01 
8.435379e-01 
8.169813e-01 
7.907063e-01 
7.647349e-01 
7.390912e-01 
7.138017e-01 
6.888957e-01 
6.644053e-01 
6.403660e-01 
6.168166e-01 