# vtk DataFile Version 2.0 
Quadtree Mesh 
ASCII 
DATASET UNSTRUCTURED_GRID 
POINTS 4096 double 
-1.000000e+00 -1.000000e+00 0.000000e+00
-9.682540e-01 -1.000000e+00 0.000000e+00
-9.365079e-01 -1.000000e+00 0.000000e+00
-9.047619e-01 -1.000000e+00 0.000000e+00
-8.730159e-01 -1.000000e+00 0.000000e+00
-8.412698e-01 -1.000000e+00 0.000000e+00
-8.095238e-01 -1.000000e+00 0.000000e+00
-7.777778e-01 -1.000000e+00 0.000000e+00
-7.460317e-01 -1.000000e+00 0.000000e+00
-7.142857e-01 -1.000000e+00 0.000000e+00
-6.825397e-01 -1.000000e+00 0.000000e+00
-6.507937e-01 -1.000000e+00 0.000000e+00
-6.190476e-01 -1.000000e+00 0.000000e+00
-5.873016e-01 -1.000000e+00 0.000000e+00
-5.555556e-01 -1.000000e+00 0.000000e+00
-5.238095e-01 -1.000000e+00 0.000000e+00
-4.920635e-01 -1.000000e+00 0.000000e+00
-4.603175e-01 -1.000000e+00 0.000000e+00
-4.285714e-01 -1.000000e+00 0.000000e+00
-3.968254e-01 -1.000000e+00 0.000000e+00
-3.650794e-01 -1.000000e+00 0.000000e+00
-3.333333e-01 -1.000000e+00 0.000000e+00
-3.015873e-01 -1.000000e+00 0.000000e+00
-2.698413e-01 -1.000000e+00 0.000000e+00
-2.380952e-01 -1.000000e+00 0.000000e+00
-2.063492e-01 -1.000000e+00 0.000000e+00
-1.746032e-01 -1.000000e+00 0.000000e+00
-1.428571e-01 -1.000000e+00 0.000000e+00
-1.111111e-01 -1.000000e+00 0.000000e+00
-7.936508e-02 -1.000000e+00 0.000000e+00
-4.761905e-02 -1.000000e+00 0.000000e+00
-1.587302e-02 -1.000000e+00 0.000000e+00
1.587302e-02 -1.000000e+00 0.000000e+00
4.761905e-02 -1.000000e+00 0.000000e+00
7.936508e-02 -1.000000e+00 0.000000e+00
1.111111e-01 -1.000000e+00 0.000000e+00
1.428571e-01 -1.000000e+00 0.000000e+00
1.746032e-01 -1.000000e+00 0.000000e+00
2.063492e-01 -1.000000e+00 0.000000e+00
2.380952e-01 -1.000000e+00 0.000000e+00
2.698413e-01 -1.000000e+00 0.000000e+00
3.015873e-01 -1.000000e+00 0.000000e+00
3.333333e-01 -1.000000e+00 0.000000e+00
3.650794e-01 -1.000000e+00 0.000000e+00
3.968254e-01 -1.000000e+00 0.000000e+00
4.285714e-01 -1.000000e+00 0.000000e+00
4.603175e-01 -1.000000e+00 0.000000e+00
4.920635e-01 -1.000000e+00 0.000000e+00
5.238095e-01 -1.000000e+00 0.000000e+00
5.555556e-01 -1.000000e+00 0.000000e+00
5.873016e-01 -1.000000e+00 0.000000e+00
6.190476e-01 -1.000000e+00 0.000000e+00
6.507937e-01 -1.000000e+00 0.000000e+00
6.825397e-01 -1.000000e+00 0.000000e+00
7.142857e-01 -1.000000e+00 0.000000e+00
7.460317e-01 -1.000000e+00 0.000000e+00
7.777778e-01 -1.000000e+00 0.000000e+00
8.095238e-01 -1.000000e+00 0.000000e+00
8.412698e-01 -1.000000e+00 0.000000e+00
8.730159e-01 -1.000000e+00 0.000000e+00
9.047619e-01 -1.000000e+00 0.000000e+00
9.365079e-01 -1.000000e+00 0.000000e+00
9.682540e-01 -1.000000e+00 0.000000e+00
1.000000e+00 -1.000000e+00 0.000000e+00
-1.000000e+00 -9.682540e-01 0.000000e+00
-9.682540e-01 -9.682540e-01 0.000000e+00
-9.365079e-01 -9.682540e-01 0.000000e+00
-9.047619e-01 -9.682540e-01 0.000000e+00
-8.730159e-01 -9.682540e-01 0.000000e+00
-8.412698e-01 -9.682540e-01 0.000000e+00
-8.095238e-01 -9.682540e-01 0.000000e+00
-7.777778e-01 -9.682540e-01 0.000000e+00
-7.460317e-01 -9.682540e-01 0.000000e+00
-7.142857e-01 -9.682540e-01 0.000000e+00
-6.825397e-01 -9.682540e-01 0.000000e+00
-6.507937e-01 -9.682540e-01 0.000000e+00
-6.190476e-01 -9.682540e-01 0.000000e+00
-5.873016e-01 -9.682540e-01 0.000000e+00
-5.555556e-01 -9.682540e-01 0.000000e+00
-5.238095e-01 -9.682540e-01 0.000000e+00
-4.920635e-01 -9.682540e-01 0.000000e+00
-4.603175e-01 -9.682540e-01 0.000000e+00
-4.285714e-01 -9.682540e-01 0.000000e+00
-3.968254e-01 -9.682540e-01 0.000000e+00
-3.650794e-01 -9.682540e-01 0.000000e+00
-3.333333e-01 -9.682540e-01 0.000000e+00
-3.015873e-01 -9.682540e-01 0.000000e+00
-2.698413e-01 -9.682540e-01 0.000000e+00
-2.380952e-01 -9.682540e-01 0.000000e+00
-2.063492e-01 -9.682540e-01 0.000000e+00
-1.746032e-01 -9.682540e-01 0.000000e+00
-1.428571e-01 -9.682540e-01 0.000000e+00
-1.111111e-01 -9.682540e-01 0.000000e+00
-7.936508e-02 -9.682540e-01 0.000000e+00
-4.761905e-02 -9.682540e-01 0.000000e+00
-1.587302e-02 -9.682540e-01 0.000000e+00
1.587302e-02 -9.682540e-01 0.000000e+00
4.761905e-02 -9.682540e-01 0.000000e+00
7.936508e-02 -9.682540e-01 0.000000e+00
1.111111e-01 -9.682540e-01 0.000000e+00
1.428571e-01 -9.682540e-01 0.000000e+00
1.746032e-01 -9.682540e-01 0.000000e+00
2.063492e-01 -9.682540e-01 0.000000e+00
2.380952e-01 -9.682540e-01 0.000000e+00
2.698413e-01 -9.682540e-01 0.000000e+00
3.015873e-01 -9.682540e-01 0.000000e+00
3.333333e-01 -9.682540e-01 0.000000e+00
3.650794e-01 -9.682540e-01 0.000000e+00
3.968254e-01 -9.682540e-01 0.000000e+00
4.285714e-01 -9.682540e-01 0.000000e+00
4.603175e-01 -9.682540e-01 0.000000e+00
4.920635e-01 -9.682540e-01 0.000000e+00
5.238095e-01 -9.682540e-01 0.000000e+00
5.555556e-01 -9.682540e-01 0.000000e+00
5.873016e-01 -9.682540e-01 0.000000e+00
6.190476e-01 -9.682540e-01 0.000000e+00
6.507937e-01 -9.682540e-01 0.000000e+00
6.825397e-01 -9.682540e-01 0.000000e+00
7.142857e-01 -9.682540e-01 0.000000e+00
7.460317e-01 -9.682540e-01 0.000000e+00
7.777778e-01 -9.682540e-01 0.000000e+00
8.095238e-01 -9.682540e-01 0.000000e+00
8.412698e-01 -9.682540e-01 0.000000e+00
8.730159e-01 -9.682540e-01 0.000000e+00
9.047619e-01 -9.682540e-01 0.000000e+00
9.365079e-01 -9.682540e-01 0.000000e+00
9.682540e-01 -9.682540e-01 0.000000e+00
1.000000e+00 -9.682540e-01 0.000000e+00
-1.000000e+00 -9.365079e-01 0.000000e+00
-9.682540e-01 -9.365079e-01 0.000000e+00
-9.365079e-01 -9.365079e-01 0.000000e+00
-9.047619e-01 -9.365079e-01 0.000000e+00
-8.730159e-01 -9.365079e-01 0.000000e+00
-8.412698e-01 -9.365079e-01 0.000000e+00
-8.095238e-01 -9.365079e-01 0.000000e+00
-7.777778e-01 -9.365079e-01 0.000000e+00
-7.460317e-01 -9.365079e-01 0.000000e+00
-7.142857e-01 -9.365079e-01 0.000000e+00
-6.825397e-01 -9.365079e-01 0.000000e+00
-6.507937e-01 -9.365079e-01 0.000000e+00
-6.190476e-01 -9.365079e-01 0.000000e+00
-5.873016e-01 -9.365079e-01 0.000000e+00
-5.555556e-01 -9.365079e-01 0.000000e+00
-5.238095e-01 -9.365079e-01 0.000000e+00
-4.920635e-01 -9.365079e-01 0.000000e+00
-4.603175e-01 -9.365079e-01 0.000000e+00
-4.285714e-01 -9.365079e-01 0.000000e+00
-3.968254e-01 -9.365079e-01 0.000000e+00
-3.650794e-01 -9.365079e-01 0.000000e+00
-3.333333e-01 -9.365079e-01 0.000000e+00
-3.015873e-01 -9.365079e-01 0.000000e+00
-2.698413e-01 -9.365079e-01 0.000000e+00
-2.380952e-01 -9.365079e-01 0.000000e+00
-2.063492e-01 -9.365079e-01 0.000000e+00
-1.746032e-01 -9.365079e-01 0.000000e+00
-1.428571e-01 -9.365079e-01 0.000000e+00
-1.111111e-01 -9.365079e-01 0.000000e+00
-7.936508e-02 -9.365079e-01 0.000000e+00
-4.761905e-02 -9.365079e-01 0.000000e+00
-1.587302e-02 -9.365079e-01 0.000000e+00
1.587302e-02 -9.365079e-01 0.000000e+00
4.761905e-02 -9.365079e-01 0.000000e+00
7.936508e-02 -9.365079e-01 0.000000e+00
1.111111e-01 -9.365079e-01 0.000000e+00
1.428571e-01 -9.365079e-01 0.000000e+00
1.746032e-01 -9.365079e-01 0.000000e+00
2.063492e-01 -9.365079e-01 0.000000e+00
2.380952e-01 -9.365079e-01 0.000000e+00
2.698413e-01 -9.365079e-01 0.000000e+00
3.015873e-01 -9.365079e-01 0.000000e+00
3.333333e-01 -9.365079e-01 0.000000e+00
3.650794e-01 -9.365079e-01 0.000000e+00
3.968254e-01 -9.365079e-01 0.000000e+00
4.285714e-01 -9.365079e-01 0.000000e+00
4.603175e-01 -9.365079e-01 0.000000e+00
4.920635e-01 -9.365079e-01 0.000000e+00
5.238095e-01 -9.365079e-01 0.000000e+00
5.555556e-01 -9.365079e-01 0.000000e+00
5.873016e-01 -9.365079e-01 0.000000e+00
6.190476e-01 -9.365079e-01 0.000000e+00
6.507937e-01 -9.365079e-01 0.000000e+00
6.825397e-01 -9.365079e-01 0.000000e+00
7.142857e-01 -9.365079e-01 0.000000e+00
7.460317e-01 -9.365079e-01 0.000000e+00
7.777778e-01 -9.365079e-01 0.000000e+00
8.095238e-01 -9.365079e-01 0.000000e+00
8.412698e-01 -9.365079e-01 0.000000e+00
8.730159e-01 -9.365079e-01 0.000000e+00
9.047619e-01 -9.365079e-01 0.000000e+00
9.365079e-01 -9.365079e-01 0.000000e+00
9.682540e-01 -9.365079e-01 0.000000e+00
1.000000e+00 -9.365079e-01 0.000000e+00
-1.000000e+00 -9.047619e-01 0.000000e+00
-9.682540e-01 -9.047619e-01 0.000000e+00
-9.365079e-01 -9.047619e-01 0.000000e+00
-9.047619e-01 -9.047619e-01 0.000000e+00
-8.730159e-01 -9.047619e-01 0.000000e+00
-8.412698e-01 -9.047619e-01 0.000000e+00
-8.095238e-01 -9.047619e-01 0.000000e+00
-7.777778e-01 -9.047619e-01 0.000000e+00
-7.460317e-01 -9.047619e-01 0.000000e+00
-7.142857e-01 -9.047619e-01 0.000000e+00
-6.825397e-01 -9.047619e-01 0.000000e+00
-6.507937e-01 -9.047619e-01 0.000000e+00
-6.190476e-01 -9.047619e-01 0.000000e+00
-5.873016e-01 -9.047619e-01 0.000000e+00
-5.555556e-01 -9.047619e-01 0.000000e+00
-5.238095e-01 -9.047619e-01 0.000000e+00
-4.920635e-01 -9.047619e-01 0.000000e+00
-4.603175e-01 -9.047619e-01 0.000000e+00
-4.285714e-01 -9.047619e-01 0.000000e+00
-3.968254e-01 -9.047619e-01 0.000000e+00
-3.650794e-01 -9.047619e-01 0.000000e+00
-3.333333e-01 -9.047619e-01 0.000000e+00
-3.015873e-01 -9.047619e-01 0.000000e+00
-2.698413e-01 -9.047619e-01 0.000000e+00
-2.380952e-01 -9.047619e-01 0.000000e+00
-2.063492e-01 -9.047619e-01 0.000000e+00
-1.746032e-01 -9.047619e-01 0.000000e+00
-1.428571e-01 -9.047619e-01 0.000000e+00
-1.111111e-01 -9.047619e-01 0.000000e+00
-7.936508e-02 -9.047619e-01 0.000000e+00
-4.761905e-02 -9.047619e-01 0.000000e+00
-1.587302e-02 -9.047619e-01 0.000000e+00
1.587302e-02 -9.047619e-01 0.000000e+00
4.761905e-02 -9.047619e-01 0.000000e+00
7.936508e-02 -9.047619e-01 0.000000e+00
1.111111e-01 -9.047619e-01 0.000000e+00
1.428571e-01 -9.047619e-01 0.000000e+00
1.746032e-01 -9.047619e-01 0.000000e+00
2.063492e-01 -9.047619e-01 0.000000e+00
2.380952e-01 -9.047619e-01 0.000000e+00
2.698413e-01 -9.047619e-01 0.000000e+00
3.015873e-01 -9.047619e-01 0.000000e+00
3.333333e-01 -9.047619e-01 0.000000e+00
3.650794e-01 -9.047619e-01 0.000000e+00
3.968254e-01 -9.047619e-01 0.000000e+00
4.285714e-01 -9.047619e-01 0.000000e+00
4.603175e-01 -9.047619e-01 0.000000e+00
4.920635e-01 -9.047619e-01 0.000000e+00
5.238095e-01 -9.047619e-01 0.000000e+00
5.555556e-01 -9.047619e-01 0.000000e+00
5.873016e-01 -9.047619e-01 0.000000e+00
6.190476e-01 -9.047619e-01 0.000000e+00
[...]
POINT_DATA 4096 
SCALARS concentration double 1 
LOOKUP_TABLE default 
1.019835e+00 
9.985718e-01 
9.777453e-01 
9.574039e-01 
9.375674e-01 
9.182627e-01 
8.995185e-01 
8.813650e-01 
8.638338e-01 
8.469586e-01 
8.307746e-01 
8.153181e-01 
8.006266e-01 
7.867388e-01 
7.736940e-01 
7.615322e-01 
7.502937e-01 
7.400185e-01 
7.307459e-01 
7.225137e-01 
7.153576e-01 
7.093102e-01 
7.044000e-01 
7.006505e-01 
6.980739e-01 
6.965881e-01 
6.972215e-01 
6.995966e-01 
7.033767e-01 
7.084305e-01 
7.146802e-01 
7.220692e-01 
7.305469e-01 
7.400666e-01 
7.505855e-01 
7.620621e-01 
7.744538e-01 
7.877192e-01 
8.018185e-01 
8.167127e-01 
8.323640e-01 
8.487355e-01 
8.657919e-01 
8.834988e-01 
9.018236e-01 
9.207347e-01 
9.402022e-01 
9.601976e-01 
9.806937e-01 
1.001665e+00 
1.023086e+00 
1.044935e+00 
1.067190e+00 
1.089829e+00 
1.112833e+00 
1.136183e+00 
1.159863e+00 
1.183856e+00 
1.208145e+00 
1.232717e+00 
1.257557e+00 
1.282652e+00 
1.307990e+00 
1.333559e+00 
9.963078e-01 
9.746337e-01 
9.533918e-01 
9.326300e-01 
9.123688e-01 
8.926363e-01 
8.734621e-01 
8.548778e-01 
8.369164e-01 
8.196129e-01 
8.030043e-01 
7.871291e-01 
7.720272e-01 
7.577397e-01 
7.443087e-01 
7.317774e-01 
7.201892e-01 
7.095876e-01 
7.000156e-01 
6.915145e-01 
6.841235e-01 
6.778786e-01 
6.728113e-01 
6.689472e-01 
6.663004e-01 
6.647985e-01 
6.655263e-01 
6.680265e-01 
6.719640e-01 
6.772087e-01 
6.836825e-01 
6.913272e-01 
7.000899e-01 
7.099209e-01 
7.207746e-01 
7.326067e-01 
7.453723e-01 
7.590265e-01 
7.735263e-01 
7.888305e-01 
8.048987e-01 
8.216921e-01 
8.391732e-01 
8.573062e-01 
8.760567e-01 
8.953920e-01 
9.152810e-01 
9.356943e-01 
9.566038e-01 
9.779830e-01 
9.998070e-01 
1.022052e+00 
1.044696e+00 
1.067717e+00 
1.091097e+00 
1.114815e+00 
1.138855e+00 
1.163200e+00 
1.187834e+00 
1.212743e+00 
1.237913e+00 
1.263331e+00 
1.288983e+00 
1.314860e+00 
9.731690e-01 
9.510737e-01 
9.294050e-01 
9.082101e-01 
8.875108e-01 
8.673358e-01 
8.477162e-01 
8.286847e-01 
8.102759e-01 
7.925262e-01 
7.754742e-01 
7.591606e-01 
7.436279e-01 
7.289197e-01 
7.150813e-01 
7.021590e-01 
6.901998e-01 
6.792512e-01 
6.693601e-01 
6.605718e-01 
6.529296e-01 
6.464732e-01 
6.412374e-01 
6.372507e-01 
6.345291e-01 
6.330103e-01 
6.338365e-01 
6.364671e-01 
6.405703e-01 
6.460170e-01 
6.527287e-01 
6.606452e-01 
6.697109e-01 
6.798729e-01 
6.910823e-01 
7.032911e-01 
7.164518e-01 
7.305159e-01 
7.454372e-01 
7.611715e-01 
7.776761e-01 
7.949099e-01 
8.128334e-01 
8.314090e-01 
8.506009e-01 
8.703749e-01 
8.906990e-01 
9.115425e-01 
9.328767e-01 
9.546745e-01 
9.769102e-01 
9.995598e-01 
1.022601e+00 
1.046011e+00 
1.069772e+00 
1.093863e+00 
1.118268e+00 
1.142970e+00 
1.167953e+00 
1.193202e+00 
1.218704e+00 
1.244445e+00 
1.270414e+00 
1.296599e+00 
9.504381e-01 
9.279123e-01 
9.058062e-01 
8.841669e-01 
8.630166e-01 
8.423852e-01 
8.223048e-01 
8.028095e-01 
7.839353e-01 
7.657206e-01 
7.482055e-01 
7.314329e-01 
7.154476e-01 
7.002965e-01 
6.860277e-01 
6.726912e-01 
6.603380e-01 
6.490197e-01 
6.387877e-01 
6.296921e-01 
6.217805e-01 
6.150971e-01 
6.096805e-01 
6.055621e-01 
6.027605e-01 
6.012240e-01 
6.021527e-01 
6.049195e-01 
6.091975e-01 
6.148587e-01 
6.218237e-01 
6.300298e-01 
6.394180e-01 
6.499318e-01 
6.615184e-01 
6.741261e-01 
6.877035e-01 
7.021991e-01 
7.175631e-01 
7.337481e-01 
7.507086e-01 
7.684014e-01 
7.867848e-01 
8.058194e-01 
8.254678e-01 
8.456946e-01 
8.664665e-01 
8.877521e-01 
9.095218e-01 
9.317478e-01 
9.544040e-01 
9.774659e-01 
1.000911e+00 
1.024717e+00 
1.048864e+00 
1.073333e+00 
1.098106e+00 
1.123168e+00 
1.148502e+00 
1.174093e+00 
1.199929e+00 
1.225996e+00 
1.252282e+00 
1.278775e+00 
9.281407e-01 
9.051754e-01 
8.826218e-01 
8.605265e-01 
8.389127e-01 
8.178109e-01 
7.972544e-01 
7.772783e-01 
7.579205e-01 
7.392208e-01 
7.212217e-01 
7.039682e-01 
6.875074e-01 
6.718893e-01 
6.571656e-01 
6.433899e-01 
6.306174e-01 
6.189047e-01 
6.083081e-01 
5.988827e-01 
5.906816e-01 
5.837537e-01 
5.781424e-01 
5.738823e-01 
5.709950e-01 
5.694398e-01 
5.704751e-01 
5.733846e-01 
5.778476e-01 
5.837373e-01 
5.909728e-01 
5.994882e-01 
6.092205e-01 
6.201089e-01 
6.320964e-01 
6.451266e-01 
6.591443e-01 
6.740945e-01 
6.899235e-01 
7.065806e-01 
7.240175e-01 
7.421884e-01 
7.610496e-01 
7.805598e-01 
8.006801e-01 
8.213739e-01 
8.426065e-01 
8.643458e-01 
8.865614e-01 
9.092249e-01 
9.323099e-01 
9.557914e-01 
9.796464e-01 
1.003853e+00 
1.028391e+00 
1.053242e+00 
1.078388e+00 
1.103812e+00 
1.129499e+00 
1.155434e+00 
1.181604e+00 
1.207997e+00 
1.234600e+00 
1.261402e+00 
9.063038e-01 
8.828907e-01 
8.598796e-01 
8.373172e-01 
8.152272e-01 
7.936411e-01 
7.725930e-01 
7.521193e-01 
7.322590e-01 
7.130539e-01 
6.945488e-01 
6.767910e-01 
6.598304e-01 
6.437200e-01 
6.285148e-01 
6.142727e-01 
6.010537e-01 
5.889194e-01 
5.779317e-01 
5.681519e-01 
5.596387e-01 
5.524470e-01 
5.466253e-01 
5.422124e-01 
5.392328e-01 
5.376577e-01 
5.388038e-01 
5.418631e-01 
5.465228e-01 
5.526567e-01 
5.601820e-01 
5.690285e-01 
5.791287e-01 
5.904169e-01 
6.028308e-01 
6.163095e-01 
6.307929e-01 
6.462224e-01 
6.625401e-01 
6.796918e-01 
6.976264e-01 
7.162953e-01 
7.356527e-01 
7.556556e-01 
7.762633e-01 
7.974380e-01 
8.191441e-01 
8.413484e-01 
8.640200e-01 
8.871300e-01 
9.106516e-01 
9.345596e-01 
9.588306e-01 
9.834430e-01 
1.008377e+00 
1.033612e+00 
1.059132e+00 
1.084921e+00 
1.110962e+00 
1.137242e+00 
1.163748e+00 
1.190466e+00 
1.217386e+00 
1.244496e+00 
8.849558e-01 
8.610862e-01 
8.376086e-01 
8.145683e-01 
7.919899e-01 
7.699057e-01 
7.483506e-01 
7.273621e-01 
7.069806e-01 
6.872496e-01 
6.682161e-01 
6.499300e-01 
6.324440e-01 
6.158141e-01 
6.000993e-01 
5.853617e-01 
5.716663e-01 
5.590806e-01 
5.476729e-01 
5.375110e-01 
5.286607e-01 
5.211834e-01 
5.151336e-01 
5.105551e-01 
5.074759e-01 
5.058794e-01 
5.071396e-01 
5.103563e-01 
5.152253e-01 
5.216210e-01 
5.294572e-01 
5.386591e-01 
5.491536e-01 
5.608691e-01 
5.737378e-01 
5.876929e-01 
6.026695e-01 
6.186046e-01 
6.354362e-01 
6.531064e-01 
6.715608e-01 
6.907484e-01 
7.106209e-01 
7.311336e-01 
7.522444e-01 
7.739140e-01 
7.961060e-01 
8.187864e-01 
8.419237e-01 
8.654887e-01 
8.894541e-01 
9.137946e-01 
9.384870e-01 
9.635093e-01 
9.888415e-01 
1.014465e+00 
1.040362e+00 
1.066516e+00 
1.092913e+00 
1.119538e+00 
1.146378e+00 
1.173421e+00 
1.200656e+00 
1.228073e+00 
8.641295e-01 
8.397957e-01 
8.158432e-01 
7.923147e-01 
7.692362e-01 
7.466405e-01 
7.245632e-01 
7.030431e-01 
6.821217e-01 
6.618445e-01 
6.422601e-01 
6.234208e-01 
6.053823e-01 
5.882040e-01 
5.719491e-01 
5.566843e-01 
5.424800e-01 
5.294100e-01 
5.175499e-01 
5.069751e-01 
4.977592e-01 
4.899714e-01 
4.836734e-01 
4.789149e-01 
4.757275e-01 
4.741075e-01 
4.754854e-01 
4.788677e-01 
4.839601e-01 
4.906369e-01 
4.988076e-01 
5.083914e-01 
5.193088e-01 
5.314819e-01 
5.448358e-01 
5.592977e-01 
5.747968e-01 
5.912653e-01 
6.086373e-01 
6.268507e-01 
6.458478e-01 
6.655748e-01 
6.859815e-01 
7.070211e-01 
7.286502e-01 
7.508283e-01 
7.735182e-01 
7.966851e-01 
8.202972e-01 
8.443247e-01 
8.687403e-01 
8.935187e-01 
9.186366e-01 
9.440722e-01 
9.698055e-01 
9.958180e-01 
1.022093e+00 
1.048613e+00 
1.075365e+00 
1.102334e+00 
1.129509e+00 
1.156876e+00 
1.184425e+00 
1.212146e+00 
8.438526e-01 
8.190502e-01 
7.946148e-01 
7.705896e-01 
7.470006e-01 
7.238811e-01 
7.012675e-01 
6.791993e-01 
6.577196e-01 
6.368751e-01 
6.167163e-01 
5.972977e-01 
5.786783e-01 
5.609212e-01 
5.440938e-01 
5.282677e-01 
5.135193e-01 
4.999293e-01 
4.875812e-01 
4.765591e-01 
4.669456e-01 
4.588193e-01 
4.522503e-01 
4.472950e-01 
4.439898e-01 
4.423423e-01 
4.438294e-01 
4.473837e-01 
4.527150e-01 
4.596948e-01 
4.682270e-01 
4.782231e-01 
4.895959e-01 
5.022598e-01 
5.161323e-01 
5.311335e-01 
5.471866e-01 
5.642183e-01 
5.821583e-01 
6.009403e-01 
6.205033e-01 
6.407908e-01 
6.617506e-01 
6.833340e-01 
7.054962e-01 
7.281958e-01 
7.513946e-01 
7.750575e-01 
7.991521e-01 
8.236486e-01 
8.485197e-01 
8.737399e-01 
8.992862e-01 
9.251370e-01 
9.512727e-01 
9.776748e-01 
1.004327e+00 
1.031212e+00 
1.058318e+00 
1.085630e+00 
1.113135e+00 
1.140824e+00 
1.168683e+00 
1.196705e+00 
8.241671e-01 
7.988883e-01 
7.739629e-01 
7.494315e-01 
7.253208e-01 
7.016641e-01 
6.784985e-01 
6.558641e-01 
6.338050e-01 
6.123694e-01 
5.916096e-01 
5.715827e-01 
5.523507e-01 
5.339804e-01 
5.165439e-01 
5.001185e-01 
4.847868e-01 
4.706368e-01 
4.577608e-01 
4.462527e-01 
4.362059e-01 
4.277097e-01 
4.208445e-01 
4.156749e-01 
4.122421e-01 
4.105681e-01 
4.121815e-01 
4.159243e-01 
4.215169e-01 
4.288281e-01 
4.377547e-01 
4.481993e-01 
4.600650e-01 
4.732569e-01 
4.876843e-01 
5.032597e-01 
5.198998e-01 
5.375255e-01 
5.560615e-01 
5.754375e-01 
5.955892e-01 
6.164574e-01 
6.379877e-01 
6.601299e-01 
6.828379e-01 
7.060693e-01 
7.297854e-01 
7.539506e-01 
7.785324e-01 
8.035009e-01 
8.288289e-01 
8.544912e-01 
8.804649e-01 
9.067288e-01 
9.332636e-01 
9.600513e-01 
9.870756e-01 
1.014321e+00 
1.041774e+00 
1.069422e+00 
1.097252e+00 
1.125253e+00 
1.153416e+00 
1.181730e+00 
8.051012e-01 
7.793430e-01 
7.539218e-01 
7.288771e-01 
7.042354e-01 
6.800305e-01 
6.562993e-01 
6.330828e-01 
6.104257e-01 
5.883774e-01 
5.669921e-01 
5.463290e-01 
5.264531e-01 
5.074353e-01 
4.893525e-01 
4.722878e-01 
4.563306e-01 
4.415767e-01 
4.281282e-01 
4.160905e-01 
4.055694e-01 
3.966669e-01 
3.894758e-01 
3.840707e-01 
3.804983e-01 
3.787957e-01 
3.805402e-01 
3.844851e-01 
3.903616e-01 
3.980345e-01 
4.073913e-01 
4.183236e-01 
4.307236e-01 
4.444859e-01 
4.595100e-01 
4.757001e-01 
4.929654e-01 
5.112205e-01 
5.303852e-01 
5.503850e-01 
5.711522e-01 
5.926251e-01 
6.147472e-01 
6.374668e-01 
6.607368e-01 
6.845141e-01 
7.087595e-01 
7.334372e-01 
7.585148e-01 
7.839624e-01 
8.097530e-01 
8.358619e-01 
8.622664e-01 
8.889459e-01 
9.158815e-01 
9.430558e-01 
9.704528e-01 
9.980579e-01 
1.025858e+00 
1.053840e+00 
1.081992e+00 
1.110305e+00 
1.138768e+00 
1.167373e+00 
7.866977e-01 
7.604576e-01 
7.345365e-01 
7.089725e-01 
6.837922e-01 
6.590290e-01 
6.347201e-01 
6.109063e-01 
5.876332e-01 
5.649511e-01 
5.429155e-01 
5.215878e-01 
5.010359e-01 
4.813344e-01 
4.625650e-01 
4.448172e-01 
4.281878e-01 
4.127815e-01 
3.987108e-01 
3.860940e-01 
3.750515e-01 
3.657007e-01 
3.581494e-01 
3.524843e-01 
3.487586e-01 
3.470252e-01 
3.489059e-01 
3.530688e-01 
3.592557e-01 
3.673252e-01 
3.771531e-01 
3.886177e-01 
4.015981e-01 
4.159767e-01 
4.316422e-01 
4.484891e-01 
4.664188e-01 
4.853392e-01 
5.051649e-01 
5.258172e-01 
5.472251e-01 
5.693246e-01 
5.920573e-01 
6.153703e-01 
6.392156e-01 
6.635497e-01 
6.883333e-01 
7.135305e-01 
7.391090e-01 
7.650394e-01 
7.912951e-01 
8.178517e-01 
8.446873e-01 
8.717818e-01 
8.991168e-01 
9.266755e-01 
9.544426e-01 
9.824040e-01 
1.010547e+00 
1.038859e+00 
1.067331e+00 
1.095951e+00 
1.124710e+00 
1.153600e+00 
7.689976e-01 
7.422749e-01 
7.158517e-01 
6.897644e-01 
6.640395e-01 
6.387099e-01 
6.138124e-01 
5.893879e-01 
5.654821e-01 
5.421458e-01 
5.194358e-01 
4.974152e-01 
4.761544e-01 
4.557316e-01 
4.362334e-01 
4.177555e-01 
4.004029e-01 
3.842903e-01 
3.695416e-01 
3.562898e-01 
3.446719e-01 
3.348239e-01 
3.268722e-01 
3.209187e-01 
3.170238e-01 
3.152570e-01 
3.172796e-01 
3.216788e-01 
3.282071e-01 
3.367138e-01 
3.470598e-01 
3.591075e-01 
3.727201e-01 
3.877662e-01 
4.041219e-01 
4.216714e-01 
4.403071e-01 
4.599304e-01 
4.804502e-01 
5.017838e-01 
5.238574e-01 
5.466046e-01 
5.699656e-01 
5.938865e-01 
6.183189e-01 
6.432191e-01 
6.685477e-01 
6.942694e-01 
7.203520e-01 
7.467669e-01 
7.734879e-01 
8.004915e-01 
8.277564e-01 
8.552631e-01 
8.829940e-01 
9.109332e-01 
9.390658e-01 
9.673786e-01 
9.958594e-01 
1.024497e+00 
1.053281e+00 
1.082202e+00 
1.111251e+00 
1.140421e+00 
7.520448e-01 
7.248411e-01 
6.979157e-01 
6.713032e-01 
6.450300e-01 
6.191280e-01 
5.936332e-01 
5.685863e-01 
5.440327e-01 
5.200234e-01 
4.966158e-01 
4.738745e-01 
4.518719e-01 
4.306894e-01 
4.104183e-01 
3.911605e-01 
3.730295e-01 
3.561506e-01 
3.406615e-01 
3.267108e-01 
3.144551e-01 
3.040529e-01 
2.956534e-01 
2.893781e-01 
2.852952e-01 
2.834923e-01 
2.856623e-01 
2.903193e-01 
2.972255e-01 
3.062168e-01 
3.171355e-01 
3.298241e-01 
3.441276e-01 
3.598980e-01 
3.769974e-01 
3.952985e-01 
4.146845e-01 
4.350495e-01 
4.562972e-01 
4.783410e-01 
5.011045e-01 
5.245195e-01 
5.485251e-01 
5.730668e-01 
5.980961e-01 
6.235695e-01 
6.494481e-01 
6.756970e-01 
7.022850e-01 
7.291840e-01 
7.563689e-01 
7.838168e-01 
8.115073e-01 
8.394219e-01 
8.675438e-01 
8.958577e-01 
9.243498e-01 
9.530076e-01 
9.818194e-01 
1.010775e+00 
1.039864e+00 
1.069079e+00 
1.098411e+00 
1.127852e+00 
7.358853e-01 
7.082047e-01 
6.807796e-01 
6.536428e-01 
6.268201e-01 
6.003423e-01 
5.742443e-01 
5.485660e-01 
5.233520e-01 
4.986530e-01 
4.745265e-01 
4.510379e-01 
4.282610e-01 
4.062802e-01 
3.851907e-01 
3.651005e-01 
3.461316e-01 
3.284209e-01 
3.121207e-01 
2.973980e-01 
2.844316e-01 
2.734073e-01 
2.645037e-01 
2.578668e-01 
2.535741e-01 
2.517318e-01 
2.540549e-01 
2.589951e-01 
2.663223e-01 
2.758542e-01 
2.874092e-01 
3.008055e-01 
3.158660e-01 
3.324239e-01 
3.503254e-01 
3.694306e-01 
3.896130e-01 
4.107596e-01 
4.327688e-01 
4.555509e-01 
4.790272e-01 
5.031283e-01 
5.277926e-01 
5.529658e-01 
5.785995e-01 
6.046509e-01 
6.310819e-01 
6.578587e-01 
6.849510e-01 
7.123317e-01 
7.399767e-01 
7.678643e-01 
7.959749e-01 
8.242912e-01 
8.527972e-01 
8.814787e-01 
9.103227e-01 
9.393174e-01 
9.684522e-01 
9.977172e-01 
1.027104e+00 
1.056604e+00 
1.086209e+00 
1.115914e+00 
7.205664e-01 
6.924161e-01 
6.644971e-01 
6.368400e-01 
6.094700e-01 
5.824163e-01 
5.557125e-01 
5.293970e-01 
5.035132e-01 
4.781108e-01 
4.532469e-01 
4.289864e-01 
4.054045e-01 
3.825870e-01 
3.606329e-01 
3.396556e-01 
3.197853e-01 
3.011704e-01 
2.839792e-01 
2.683994e-01 
2.546367e-01 
2.429097e-01 
2.334338e-01 
2.263877e-01 
2.218594e-01 
2.199738e-01 
2.224556e-01 
2.277097e-01 
2.355106e-01 
2.456502e-01 
2.579167e-01 
2.720982e-01 
2.879912e-01 
3.054068e-01 
3.241737e-01 
3.441383e-01 
3.651647e-01 
3.871327e-01 
4.099362e-01 
4.334829e-01 
4.576926e-01 
4.824954e-01 
5.078298e-01 
5.336420e-01 
5.598846e-01 
5.865158e-01 
6.134988e-01 
6.408009e-01 
6.683933e-01 
6.962502e-01 
7.243486e-01 
7.526683e-01 
7.811909e-01 
8.098999e-01 
8.387808e-01 
8.678202e-01 
8.970061e-01 
9.263277e-01 
9.557753e-01 
9.853398e-01 
1.015013e+00 
1.044788e+00 
1.074657e+00 
1.104615e+00 
7.061136e-01 
6.775059e-01 
6.491023e-01 
6.209332e-01 
5.930225e-01 
5.653976e-01 
5.380904e-01 
5.111371e-01 
4.845793e-01 
4.584652e-01 
4.328501e-01 
4.077983e-01 
3.833846e-01 
3.596956e-01 
3.368327e-01 
3.149138e-01 
2.940763e-01 
2.744801e-01 
2.563098e-01 
2.397767e-01 
2.251179e-01 
2.125915e-01 
2.024605e-01 
1.949476e-01 
1.901528e-01 
1.882181e-01 
1.908519e-01 
1.964555e-01 
2.047940e-01 
2.156231e-01 
2.286914e-01 
2.437495e-01 
2.605618e-01 
2.789140e-01 
2.986155e-01 
3.194990e-01 
3.414188e-01 
3.642485e-01 
3.878782e-01 
4.122143e-01 
4.371761e-01 
4.626938e-01 
4.887070e-01 
5.151630e-01 
5.420159e-01 
5.692255e-01 
5.967568e-01 
6.245787e-01 
6.526640e-01 
6.809886e-01 
7.095311e-01 
7.382725e-01 
7.671961e-01 
7.962866e-01 
8.255305e-01 
8.549158e-01 
8.844315e-01 
9.140678e-01 
9.438158e-01 
9.736675e-01 
1.003615e+00 
1.033653e+00 
1.063774e+00 
1.093974e+00 
6.926179e-01 
6.635663e-01 
6.346913e-01 
6.060215e-01 
5.775795e-01 
5.493911e-01 
5.214856e-01 
4.938968e-01 
4.666638e-01 
4.398322e-01 
4.134551e-01 
3.875946e-01 
3.623238e-01 
3.377289e-01 
3.139118e-01 
2.909934e-01 
2.691171e-01 
2.484532e-01 
2.292031e-01 
2.116035e-01 
1.959280e-01 
1.824839e-01 
1.715948e-01 
1.635445e-01 
1.584466e-01 
1.564597e-01 
1.592649e-01 
1.652674e-01 
1.742238e-01 
1.858418e-01 
1.998191e-01 
2.158591e-01 
2.336876e-01 
2.530614e-01 
2.737695e-01 
2.956306e-01 
3.184907e-01 
3.422181e-01 
3.667013e-01 
3.918461e-01 
4.175727e-01 
4.438125e-01 
4.705069e-01 
4.976053e-01 
5.250641e-01 
5.528452e-01 
5.809156e-01 
6.092466e-01 
6.378128e-01 
6.665921e-01 
6.955648e-01 
7.247136e-01 
7.540231e-01 
7.834798e-01 
8.130713e-01 
8.427868e-01 
8.726165e-01 
9.025517e-01 
9.325844e-01 
9.627074e-01 
9.929143e-01 
1.023199e+00 
1.053557e+00 
1.083982e+00 
6.801060e-01 
6.506294e-01 
6.213014e-01 
5.921488e-01 
5.631925e-01 
5.344554e-01 
5.059642e-01 
4.777498e-01 
4.498484e-01 
4.223020e-01 
3.951603e-01 
3.684821e-01 
3.423373e-01 
3.168096e-01 
2.919995e-01 
2.680284e-01 
2.450434e-01 
2.232231e-01 
2.027845e-01 
1.839904e-01 
1.671556e-01 
1.526479e-01 
1.408707e-01 
1.321942e-01 
1.267480e-01 
1.247033e-01 
1.276881e-01 
1.341474e-01 
1.438212e-01 
1.563509e-01 
1.713669e-01 
1.885124e-01 
2.074671e-01 
2.279557e-01 
2.497460e-01 
2.726448e-01 
2.964908e-01 
3.211497e-01 
3.465101e-01 
3.724793e-01 
3.989794e-01 
4.259446e-01 
4.533193e-01 
4.810557e-01 
5.091131e-01 
5.374564e-01 
5.660553e-01 
5.948833e-01 
6.239177e-01 
6.531382e-01 
6.825274e-01 
7.120697e-01 
7.417513e-01 
7.715602e-01 
8.014856e-01 
8.315178e-01 
8.616483e-01 
8.918693e-01 
9.221739e-01 
9.525558e-01 
9.830095e-01 
1.013530e+00 
1.044112e+00 
1.074752e+00 
6.686317e-01 
6.387525e-01 
6.089948e-01 
5.793829e-01 
5.499352e-01 
5.206717e-01 
4.916156e-01 
4.627943e-01 
4.342398e-01 
4.059902e-01 
3.780906e-01 
3.505951e-01 
3.235686e-01 
2.970901e-01 
2.712559e-01 
2.461848e-01 
2.220238e-01 
1.989562e-01 
1.772112e-01 
1.570767e-01 
1.389119e-01 
1.231570e-01 
1.103239e-01 
1.009082e-01 
9.505765e-02 
9.294940e-02 
9.612257e-02 
1.031122e-01 
1.136307e-01 
1.272264e-01 
1.434398e-01 
1.618357e-01 
1.820393e-01 
2.037409e-01 
2.266894e-01 
2.506814e-01 
2.755525e-01 
3.011687e-01 
3.274213e-01 
3.542212e-01 
3.814945e-01 
4.091796e-01 
4.372249e-01 
4.655867e-01 
4.942279e-01 
5.231169e-01 
5.522265e-01 
5.815333e-01 
6.110169e-01 
6.406597e-01 
6.704463e-01 
7.003631e-01 
7.303981e-01 
7.605409e-01 
7.907822e-01 
8.211135e-01 
8.515277e-01 
8.820179e-01 
9.125784e-01 
9.432037e-01 
9.738892e-01 
1.004630e+00 
1.035423e+00 
1.066264e+00 
6.582453e-01 
6.279906e-01 
5.978313e-01 
5.677893e-01 
5.378798e-01 
5.081195e-01 
4.785278e-01 
4.491278e-01 
4.199469e-01 
3.910177e-01 
3.623796e-01 
3.340803e-01 
3.061779e-01 
2.787443e-01 
2.518682e-01 
2.256615e-01 
2.002660e-01 
1.758635e-01 
1.526894e-01 
1.310509e-01 
1.113513e-01 
9.411599e-02 
8.000306e-02 
6.970192e-02 
6.337606e-02 
6.119853e-02 
6.456961e-02 
7.218448e-02 
8.371417e-02 
9.857417e-02 
1.161807e-01 
1.359961e-01 
1.575825e-01 
1.805974e-01 
2.047748e-01 
2.299075e-01 
2.558321e-01 
2.824201e-01 
3.095686e-01 
3.371946e-01 
3.652303e-01 
3.936201e-01 
4.223175e-01 
4.512839e-01 
4.804866e-01 
5.098979e-01 
5.394944e-01 
5.692559e-01 
5.991647e-01 
6.292060e-01 
6.593666e-01 
6.896350e-01 
7.200011e-01 
7.504560e-01 
7.809921e-01 
8.116022e-01 
8.422802e-01 
8.730207e-01 
9.038186e-01 
9.346696e-01 
9.655697e-01 
9.965152e-01 
1.027503e+00 
1.058530e+00 
6.489989e-01 
6.184006e-01 
5.878729e-01 
5.574356e-01 
5.271006e-01 
4.968810e-01 
4.667921e-01 
4.368522e-01 
4.070833e-01 
3.775119e-01 
3.481705e-01 
3.190985e-01 
2.903451e-01 
2.619718e-01 
2.340565e-01 
2.066988e-01 
1.800286e-01 
1.542171e-01 
1.294947e-01 
1.061761e-01 
8.469931e-02 
6.568082e-02 
4.997613e-02 
3.859427e-02 
3.170292e-02 
2.945080e-02 
3.302885e-02 
4.139427e-02 
5.416050e-02 
7.054596e-02 
8.979050e-02 
1.112189e-01 
1.343278e-01 
1.587498e-01 
1.842144e-01 
2.105190e-01 
2.375095e-01 
2.650675e-01 
2.931001e-01 
3.215334e-01 
3.503080e-01 
3.793755e-01 
4.086960e-01 
4.382368e-01 
4.679703e-01 
4.978733e-01 
5.279262e-01 
5.581122e-01 
5.884170e-01 
6.188283e-01 
6.493352e-01 
6.799284e-01 
7.105997e-01 
7.413420e-01 
7.721489e-01 
8.030149e-01 
8.339348e-01 
8.649043e-01 
8.959194e-01 
9.269766e-01 
9.580726e-01 
9.892046e-01 
1.020370e+00 
1.051566e+00 
6.409472e-01 
6.100417e-01 
5.791841e-01 
5.483920e-01 
5.176744e-01 
4.870408e-01 
4.565024e-01 
4.260726e-01 
3.957675e-01 
3.656068e-01 
3.356150e-01 
3.058225e-01 
2.762673e-01 
2.469977e-01 
2.180763e-01 