# vtk DataFile Version 2.0 
Quadtree Mesh 
ASCII 
DATASET UNSTRUCTURED_GRID 
POINTS 4096 double 
-1.000000e+00 -1.000000e+00 0.000000e+00
-9.682540e-01 -1.000000e+00 0.000000e+00
-9.365079e-01 -1.000000e+00 0.000000e+00
-9.047619e-01 -1.000000e+00 0.000000e+00
-8.730159e-01 -1.000000e+00 0.000000e+00
-8.412698e-01 -1.000000e+00 0.000000e+00
-8.095238e-01 -1.000000e+00 0.000000e+00
-7.777778e-01 -1.000000e+00 0.000000e+00
-7.460317e-01 -1.000000e+00 0.000000e+00
-7.142857e-01 -1.000000e+00 0.000000e+00
-6.825397e-01 -1.000000e+00 0.000000e+00
-6.507937e-01 -1.000000e+00 0.000000e+00
-6.190476e-01 -1.000000e+00 0.000000e+00
-5.873016e-01 -1.000000e+00 0.000000e+00
-5.555556e-01 -1.000000e+00 0.000000e+00
-5.238095e-01 -1.000000e+00 0.000000e+00
-4.920635e-01 -1.000000e+00 0.000000e+00
-4.603175e-01 -1.000000e+00 0.000000e+00
-4.285714e-01 -1.000000e+00 0.000000e+00
-3.968254e-01 -1.000000e+00 0.000000e+00
-3.650794e-01 -1.000000e+00 0.000000e+00
-3.333333e-01 -1.000000e+00 0.000000e+00
-3.015873e-01 -1.000000e+00 0.000000e+00
-2.698413e-01 -1.000000e+00 0.000000e+00
-2.380952e-01 -1.000000e+00 0.000000e+00
-2.063492e-01 -1.000000e+00 0.000000e+00
-1.746032e-01 -1.000000e+00 0.000000e+00
-1.428571e-01 -1.000000e+00 0.000000e+00
-1.111111e-01 -1.000000e+00 0.000000e+00
-7.936508e-02 -1.000000e+00 0.000000e+00
-4.761905e-02 -1.000000e+00 0.000000e+00
-1.587302e-02 -1.000000e+00 0.000000e+00
1.587302e-02 -1.000000e+00 0.000000e+00
4.761905e-02 -1.000000e+00 0.000000e+00
7.936508e-02 -1.000000e+00 0.000000e+00
1.111111e-01 -1.000000e+00 0.000000e+00
1.428571e-01 -1.000000e+00 0.000000e+00
1.746032e-01 -1.000000e+00 0.000000e+00
2.063492e-01 -1.000000e+00 0.000000e+00
2.380952e-01 -1.000000e+00 0.000000e+00
2.698413e-01 -1.000000e+00 0.000000e+00
3.015873e-01 -1.000000e+00 0.000000e+00
3.333333e-01 -1.000000e+00 0.000000e+00
3.650794e-01 -1.000000e+00 0.000000e+00
3.968254e-01 -1.000000e+00 0.000000e+00
4.285714e-01 -1.000000e+00 0.000000e+00
4.603175e-01 -1.000000e+00 0.000000e+00
4.920635e-01 -1.000000e+00 0.000000e+00
5.238095e-01 -1.000000e+00 0.000000e+00
5.555556e-01 -1.000000e+00 0.000000e+00
5.873016e-01 -1.000000e+00 0.000000e+00
6.190476e-01 -1.000000e+00 0.000000e+00
6.507937e-01 -1.000000e+00 0.000000e+00
6.825397e-01 -1.000000e+00 0.000000e+00
7.142857e-01 -1.000000e+00 0.000000e+00
7.460317e-01 -1.000000e+00 0.000000e+00
7.777778e-01 -1.000000e+00 0.000000e+00
8.095238e-01 -1.000000e+00 0.000000e+00
8.412698e-01 -1.000000e+00 0.000000e+00
8.730159e-01 -1.000000e+00 0.000000e+00
9.047619e-01 -1.000000e+00 0.000000e+00
9.365079e-01 -1.000000e+00 0.000000e+00
9.682540e-01 -1.000000e+00 0.000000e+00
1.000000e+00 -1.000000e+00 0.000000e+00
-1.000000e+00 -9.682540e-01 0.000000e+00
-9.682540e-01 -9.682540e-01 0.000000e+00
-9.365079e-01 -9.682540e-01 0.000000e+00
-9.047619e-01 -9.682540e-01 0.000000e+00
-8.730159e-01 -9.682540e-01 0.000000e+00
-8.412698e-01 -9.682540e-01 0.000000e+00
-8.095238e-01 -9.682540e-01 0.000000e+00
-7.777778e-01 -9.682540e-01 0.000000e+00
-7.460317e-01 -9.682540e-01 0.000000e+00
-7.142857e-01 -9.682540e-01 0.000000e+00
-6.825397e-01 -9.682540e-01 0.000000e+00
-6.507937e-01 -9.682540e-01 0.000000e+00
-6.190476e-01 -9.682540e-01 0.000000e+00
-5.873016e-01 -9.682540e-01 0.000000e+00
-5.555556e-01 -9.682540e-01 0.000000e+00
-5.238095e-01 -9.682540e-01 0.000000e+00
-4.920635e-01 -9.682540e-01 0.000000e+00
-4.603175e-01 -9.682540e-01 0.000000e+00
-4.285714e-01 -9.682540e-01 0.000000e+00
-3.968254e-01 -9.682540e-01 0.000000e+00
-3.650794e-01 -9.682540e-01 0.000000e+00
-3.333333e-01 -9.682540e-01 0.000000e+00
-3.015873e-01 -9.682540e-01 0.000000e+00
-2.698413e-01 -9.682540e-01 0.000000e+00
-2.380952e-01 -9.682540e-01 0.000000e+00
-2.063492e-01 -9.682540e-01 0.000000e+00
-1.746032e-01 -9.682540e-01 0.000000e+00
-1.428571e-01 -9.682540e-01 0.000000e+00
-1.111111e-01 -9.682540e-01 0.000000e+00
-7.936508e-02 -9.682540e-01 0.000000e+00
-4.761905e-02 -9.682540e-01 0.000000e+00
-1.587302e-02 -9.682540e-01 0.000000e+00
1.587302e-02 -9.682540e-01 0.000000e+00
4.761905e-02 -9.682540e-01 0.000000e+00
7.936508e-02 -9.682540e-01 0.000000e+00
1.111111e-01 -9.682540e-01 0.000000e+00
1.428571e-01 -9.682540e-01 0.000000e+00
1.746032e-01 -9.682540e-01 0.000000e+00
2.063492e-01 -9.682540e-01 0.000000e+00
2.380952e-01 -9.682540e-01 0.000000e+00
2.698413e-01 -9.682540e-01 0.000000e+00
3.015873e-01 -9.682540e-01 0.000000e+00
3.333333e-01 -9.682540e-01 0.000000e+00
3.650794e-01 -9.682540e-01 0.000000e+00
3.968254e-01 -9.682540e-01 0.000000e+00
4.285714e-01 -9.682540e-01 0.000000e+00
4.603175e-01 -9.682540e-01 0.000000e+00
4.920635e-01 -9.682540e-01 0.000000e+00
5.238095e-01 -9.682540e-01 0.000000e+00
5.555556e-01 -9.682540e-01 0.000000e+00
5.873016e-01 -9.682540e-01 0.000000e+00
6.190476e-01 -9.682540e-01 0.000000e+00
6.507937e-01 -9.682540e-01 0.000000e+00
6.825397e-01 -9.682540e-01 0.000000e+00
7.142857e-01 -9.682540e-01 0.000000e+00
7.460317e-01 -9.682540e-01 0.000000e+00
7.777778e-01 -9.682540e-01 0.000000e+00
8.095238e-01 -9.682540e-01 0.000000e+00
8.412698e-01 -9.682540e-01 0.000000e+00
8.730159e-01 -9.682540e-01 0.000000e+00
9.047619e-01 -9.682540e-01 0.000000e+00
9.365079e-01 -9.682540e-01 0.000000e+00
9.682540e-01 -9.682540e-01 0.000000e+00
1.000000e+00 -9.682540e-01 0.000000e+00
-1.000000e+00 -9.365079e-01 0.000000e+00
-9.682540e-01 -9.365079e-01 0.000000e+00
-9.365079e-01 -9.365079e-01 0.000000e+00
-9.047619e-01 -9.365079e-01 0.000000e+00
-8.730159e-01 -9.365079e-01 0.000000e+00
-8.412698e-01 -9.365079e-01 0.000000e+00
-8.095238e-01 -9.365079e-01 0.000000e+00
-7.777778e-01 -9.365079e-01 0.000000e+00
-7.460317e-01 -9.365079e-01 0.000000e+00
-7.142857e-01 -9.365079e-01 0.000000e+00
-6.825397e-01 -9.365079e-01 0.000000e+00
-6.507937e-01 -9.365079e-01 0.000000e+00
-6.190476e-01 -9.365079e-01 0.000000e+00
-5.873016e-01 -9.365079e-01 0.000000e+00
-5.555556e-01 -9.365079e-01 0.000000e+00
-5.238095e-01 -9.365079e-01 0.000000e+00
-4.920635e-01 -9.365079e-01 0.000000e+00
-4.603175e-01 -9.365079e-01 0.000000e+00
-4.285714e-01 -9.365079e-01 0.000000e+00
-3.968254e-01 -9.365079e-01 0.000000e+00
-3.650794e-01 -9.365079e-01 0.000000e+00
-3.333333e-01 -9.365079e-01 0.000000e+00
-3.015873e-01 -9.365079e-01 0.000000e+00
-2.698413e-01 -9.365079e-01 0.000000e+00
-2.380952e-01 -9.365079e-01 0.000000e+00
-2.063492e-01 -9.365079e-01 0.000000e+00
-1.746032e-01 -9.365079e-01 0.000000e+00
-1.428571e-01 -9.365079e-01 0.000000e+00
-1.111111e-01 -9.365079e-01 0.000000e+00
-7.936508e-02 -9.365079e-01 0.000000e+00
-4.761905e-02 -9.365079e-01 0.000000e+00
-1.587302e-02 -9.365079e-01 0.000000e+00
1.587302e-02 -9.365079e-01 0.000000e+00
4.761905e-02 -9.365079e-01 0.000000e+00
7.936508e-02 -9.365079e-01 0.000000e+00
1.111111e-01 -9.365079e-01 0.000000e+00
1.428571e-01 -9.365079e-01 0.000000e+00
1.746032e-01 -9.365079e-01 0.000000e+00
2.063492e-01 -9.365079e-01 0.000000e+00
2.380952e-01 -9.365079e-01 0.000000e+00
2.698413e-01 -9.365079e-01 0.000000e+00
3.015873e-01 -9.365079e-01 0.000000e+00
3.333333e-01 -9.365079e-01 0.000000e+00
3.650794e-01 -9.365079e-01 0.000000e+00
3.968254e-01 -9.365079e-01 0.000000e+00
4.285714e-01 -9.365079e-01 0.000000e+00
4.603175e-01 -9.365079e-01 0.000000e+00
4.920635e-01 -9.365079e-01 0.000000e+00
5.238095e-01 -9.365079e-01 0.000000e+00
5.555556e-01 -9.365079e-01 0.000000e+00
5.873016e-01 -9.365079e-01 0.000000e+00
6.190476e-01 -9.365079e-01 0.000000e+00
6.507937e-01 -9.365079e-01 0.000000e+00
6.825397e-01 -9.365079e-01 0.000000e+00
7.142857e-01 -9.365079e-01 0.000000e+00
7.460317e-01 -9.365079e-01 0.000000e+00
7.777778e-01 -9.365079e-01 0.000000e+00
8.095238e-01 -9.365079e-01 0.000000e+00
8.412698e-01 -9.365079e-01 0.000000e+00
8.730159e-01 -9.365079e-01 0.000000e+00
9.047619e-01 -9.365079e-01 0.000000e+00
9.365079e-01 -9.365079e-01 0.000000e+00
9.682540e-01 -9.365079e-01 0.000000e+00
1.000000e+00 -9.365079e-01 0.000000e+00
-1.000000e+00 -9.047619e-01 0.000000e+00
-9.682540e-01 -9.047619e-01 0.000000e+00
-9.365079e-01 -9.047619e-01 0.000000e+00
-9.047619e-01 -9.047619e-01 0.000000e+00
-8.730159e-01 -9.047619e-01 0.000000e+00
-8.412698e-01 -9.047619e-01 0.000000e+00
-8.095238e-01 -9.047619e-01 0.000000e+00
-7.777778e-01 -9.047619e-01 0.000000e+00
-7.460317e-01 -9.047619e-01 0.000000e+00
-7.142857e-01 -9.047619e-01 0.000000e+00
-6.825397e-01 -9.047619e-01 0.000000e+00
-6.507937e-01 -9.047619e-01 0.000000e+00
-6.190476e-01 -9.047619e-01 0.000000e+00
-5.873016e-01 -9.047619e-01 0.000000e+00
-5.555556e-01 -9.047619e-01 0.000000e+00
-5.238095e-01 -9.047619e-01 0.000000e+00
-4.920635e-01 -9.047619e-01 0.000000e+00
-4.603175e-01 -9.047619e-01 0.000000e+00
-4.285714e-01 -9.047619e-01 0.000000e+00
-3.968254e-01 -9.047619e-01 0.000000e+00
-3.650794e-01 -9.047619e-01 0.000000e+00
-3.333333e-01 -9.047619e-01 0.000000e+00
-3.015873e-01 -9.047619e-01 0.000000e+00
-2.698413e-01 -9.047619e-01 0.000000e+00
-2.380952e-01 -9.047619e-01 0.000000e+00
-2.063492e-01 -9.047619e-01 0.000000e+00
-1.746032e-01 -9.047619e-01 0.000000e+00
-1.428571e-01 -9.047619e-01 0.000000e+00
-1.111111e-01 -9.047619e-01 0.000000e+00
-7.936508e-02 -9.047619e-01 0.000000e+00
-4.761905e-02 -9.047619e-01 0.000000e+00
-1.587302e-02 -9.047619e-01 0.000000e+00
1.587302e-02 -9.047619e-01 0.000000e+00
4.761905e-02 -9.047619e-01 0.000000e+00
7.936508e-02 -9.047619e-01 0.000000e+00
1.111111e-01 -9.047619e-01 0.000000e+00
1.428571e-01 -9.047619e-01 0.000000e+00
1.746032e-01 -9.047619e-01 0.000000e+00
2.063492e-01 -9.047619e-01 0.000000e+00
2.380952e-01 -9.047619e-01 0.000000e+00
2.698413e-01 -9.047619e-01 0.000000e+00
3.015873e-01 -9.047619e-01 0.000000e+00
3.333333e-01 -9.047619e-01 0.000000e+00
3.650794e-01 -9.047619e-01 0.000000e+00
3.968254e-01 -9.047619e-01 0.000000e+00
4.285714e-01 -9.047619e-01 0.000000e+00
4.603175e-01 -9.047619e-01 0.000000e+00
4.920635e-01 -9.047619e-01 0.000000e+00
5.238095e-01 -9.047619e-01 0.000000e+00
5.555556e-01 -9.047619e-01 0.000000e+00
5.873016e-01 -9.047619e-01 0.000000e+00
6.190476e-01 -9.047619e-01 0.000000e+00
[...]
POINT_DATA 4096 
SCALARS concentration double 1 
LOOKUP_TABLE default 
1.362835e+00 
1.337955e+00 
1.313257e+00 
1.288805e+00 
1.264620e+00 
1.240716e+00 
1.217107e+00 
1.193808e+00 
1.170834e+00 
1.148201e+00 
1.125925e+00 
1.104027e+00 
1.082523e+00 
1.061436e+00 
1.040785e+00 
1.020594e+00 
1.000886e+00 
9.816852e-01 
9.630184e-01 
9.449120e-01 
9.273939e-01 
9.104934e-01 
8.942406e-01 
8.786668e-01 
8.638042e-01 
8.496860e-01 
8.363460e-01 
8.238187e-01 
8.121387e-01 
8.013409e-01 
7.914601e-01 
7.825309e-01 
7.745873e-01 
7.676579e-01 
7.617659e-01 
7.569338e-01 
7.531834e-01 
7.505344e-01 
7.490101e-01 
7.489626e-01 
7.505892e-01 
7.536897e-01 
7.580982e-01 
7.637012e-01 
7.704256e-01 
7.782203e-01 
7.870431e-01 
7.968557e-01 
8.076205e-01 
8.193004e-01 
8.318581e-01 
8.452566e-01 
8.594592e-01 
8.744299e-01 
8.901333e-01 
9.065350e-01 
9.236018e-01 
9.413015e-01 
9.596031e-01 
9.784771e-01 
9.978949e-01 
1.017830e+00 
1.038255e+00 
1.059151e+00 
1.343266e+00 
1.318074e+00 
1.293056e+00 
1.268278e+00 
1.243759e+00 
1.219515e+00 
1.195559e+00 
1.171906e+00 
1.148571e+00 
1.125570e+00 
1.102921e+00 
1.080642e+00 
1.058753e+00 
1.037274e+00 
1.016228e+00 
9.956367e-01 
9.755255e-01 
9.559195e-01 
9.368453e-01 
9.183308e-01 
9.004052e-01 
8.830990e-01 
8.664439e-01 
8.504729e-01 
8.352203e-01 
8.207211e-01 
8.070117e-01 
7.941287e-01 
7.821096e-01 
7.709918e-01 
7.608132e-01 
7.516119e-01 
7.434242e-01 
7.362811e-01 
7.302079e-01 
7.252294e-01 
7.213695e-01 
7.186497e-01 
7.170940e-01 
7.171036e-01 
7.188487e-01 
7.221013e-01 
7.266875e-01 
7.324938e-01 
7.394486e-01 
7.475007e-01 
7.566069e-01 
7.667267e-01 
7.778202e-01 
7.898474e-01 
8.027686e-01 
8.165439e-01 
8.311344e-01 
8.465016e-01 
8.626081e-01 
8.794175e-01 
8.968949e-01 
9.150066e-01 
9.337202e-01 
9.530048e-01 
9.728312e-01 
9.931711e-01 
1.013998e+00 
1.035290e+00 
1.324121e+00 
1.298610e+00 
1.273270e+00 
1.248163e+00 
1.223309e+00 
1.198721e+00 
1.174413e+00 
1.150401e+00 
1.126699e+00 
1.103325e+00 
1.080295e+00 
1.057628e+00 
1.035345e+00 
1.013467e+00 
9.920148e-01 
9.710136e-01 
9.504877e-01 
9.304635e-01 
9.109685e-01 
8.920315e-01 
8.736830e-01 
8.559550e-01 
8.388807e-01 
8.224950e-01 
8.068340e-01 
7.919354e-01 
7.778376e-01 
7.645801e-01 
7.522030e-01 
7.407470e-01 
7.302535e-01 
7.207631e-01 
7.123152e-01 
7.049432e-01 
6.986756e-01 
6.935397e-01 
6.895619e-01 
6.867655e-01 
6.851756e-01 
6.852467e-01 
6.871152e-01 
6.905250e-01 
6.952955e-01 
7.013144e-01 
7.085114e-01 
7.168348e-01 
7.262399e-01 
7.366835e-01 
7.481229e-01 
7.605150e-01 
7.738172e-01 
7.879867e-01 
8.029819e-01 
8.187619e-01 
8.352868e-01 
8.525186e-01 
8.704202e-01 
8.889564e-01 
9.080936e-01 
9.277996e-01 
9.480439e-01 
9.687977e-01 
9.900334e-01 
1.011728e+00 
1.305410e+00 
1.279580e+00 
1.253916e+00 
1.228478e+00 
1.203285e+00 
1.178350e+00 
1.153687e+00 
1.129312e+00 
1.105239e+00 
1.081484e+00 
1.058067e+00 
1.035006e+00 
1.012321e+00 
9.900338e-01 
9.681670e-01 
9.467448e-01 
9.257926e-01 
9.053375e-01 
8.854078e-01 
8.660336e-01 
8.472464e-01 
8.290798e-01 
8.115686e-01 
7.947497e-01 
7.786614e-01 
7.633436e-01 
7.488374e-01 
7.351852e-01 
7.224300e-01 
7.106163e-01 
6.997888e-01 
6.899913e-01 
6.812660e-01 
6.736500e-01 
6.671747e-01 
6.618708e-01 
6.577670e-01 
6.548889e-01 
6.532630e-01 
6.534009e-01 
6.553981e-01 
6.589708e-01 
6.639337e-01 
6.701765e-01 
6.776297e-01 
6.862409e-01 
6.959628e-01 
7.067494e-01 
7.185545e-01 
7.313317e-01 
7.450348e-01 
7.596183e-01 
7.750374e-01 
7.912485e-01 
8.082096e-01 
8.258803e-01 
8.442218e-01 
8.631972e-01 
8.827713e-01 
9.029110e-01 
9.235846e-01 
9.447623e-01 
9.664160e-01 
9.885218e-01 
1.287148e+00 
1.260999e+00 
1.235011e+00 
1.209240e+00 
1.183706e+00 
1.158421e+00 
1.133400e+00 
1.108657e+00 
1.084208e+00 
1.060069e+00 
1.036259e+00 
1.012797e+00 
9.897022e-01 
9.669976e-01 
9.447062e-01 
9.228523e-01 
9.014622e-01 
8.805633e-01 
8.601850e-01 
8.403584e-01 
8.211163e-01 
8.024938e-01 
7.845275e-01 
7.672562e-01 
7.507205e-01 
7.349627e-01 
7.200268e-01 
7.059581e-01 
6.928033e-01 
6.806108e-01 
6.694285e-01 
6.593036e-01 
6.502824e-01 
6.424055e-01 
6.357080e-01 
6.302242e-01 
6.259857e-01 
6.230205e-01 
6.213566e-01 
6.215668e-01 
6.236981e-01 
6.274400e-01 
6.326050e-01 
6.390846e-01 
6.468101e-01 
6.557274e-01 
6.657863e-01 
6.769369e-01 
6.891294e-01 
7.023134e-01 
7.164393e-01 
7.314579e-01 
7.473214e-01 
7.639834e-01 
7.813993e-01 
7.995265e-01 
8.183244e-01 
8.377542e-01 
8.577794e-01 
8.783656e-01 
8.994802e-01 
9.210924e-01 
9.431736e-01 
9.656992e-01 
1.269354e+00 
1.242886e+00 
1.216572e+00 
1.190468e+00 
1.164591e+00 
1.138954e+00 
1.113572e+00 
1.088459e+00 
1.063630e+00 
1.039102e+00 
1.014893e+00 
9.910226e-01 
9.675115e-01 
9.443816e-01 
9.216562e-01 
8.993603e-01 
8.775205e-01 
8.561650e-01 
8.353240e-01 
8.150297e-01 
7.953163e-01 
7.762201e-01 
7.577798e-01 
7.400361e-01 
7.230319e-01 
7.068123e-01 
6.914240e-01 
6.769158e-01 
6.633383e-01 
6.507437e-01 
6.391836e-01 
6.287095e-01 
6.193717e-01 
6.112154e-01 
6.042797e-01 
5.986029e-01 
5.942199e-01 
5.911615e-01 
5.894575e-01 
5.897450e-01 
5.920152e-01 
5.959334e-01 
6.013112e-01 
6.080426e-01 
6.160586e-01 
6.253026e-01 
6.357206e-01 
6.472585e-01 
6.598619e-01 
6.734765e-01 
6.880483e-01 
7.035247e-01 
7.198543e-01 
7.369880e-01 
7.548783e-01 
7.734803e-01 
7.927514e-01 
8.126514e-01 
8.331421e-01 
8.541879e-01 
8.757552e-01 
8.978126e-01 
9.203310e-01 
9.432851e-01 
1.252045e+00 
1.225256e+00 
1.198617e+00 
1.172178e+00 
1.145957e+00 
1.119967e+00 
1.094222e+00 
1.068735e+00 
1.043523e+00 
1.018602e+00 
9.939895e-01 
9.697059e-01 
9.457715e-01 
9.222083e-01 
8.990401e-01 
8.762921e-01 
8.539913e-01 
8.321666e-01 
8.108491e-01 
7.900719e-01 
7.698706e-01 
7.502830e-01 
7.313495e-01 
7.131130e-01 
6.956186e-01 
6.789142e-01 
6.630497e-01 
6.480775e-01 
6.340526e-01 
6.210308e-01 
6.090682e-01 
5.982208e-01 
5.885441e-01 
5.800877e-01 
5.728958e-01 
5.670113e-01 
5.624730e-01 
5.593146e-01 
5.575682e-01 
5.579361e-01 
5.603492e-01 
5.644512e-01 
5.700543e-01 
5.770545e-01 
5.853815e-01 
5.949751e-01 
6.057766e-01 
6.177272e-01 
6.307673e-01 
6.448379e-01 
6.598807e-01 
6.758390e-01 
6.926579e-01 
7.102849e-01 
7.286699e-01 
7.477658e-01 
7.675277e-01 
7.879138e-01 
8.088845e-01 
8.304031e-01 
8.524352e-01 
8.749489e-01 
8.979143e-01 
9.213058e-01 
1.235221e+00 
1.208109e+00 
1.181144e+00 
1.154372e+00 
1.127807e+00 
1.101463e+00 
1.075354e+00 
1.049492e+00 
1.023894e+00 
9.985771e-01 
9.735581e-01 
9.488567e-01 
9.244935e-01 
9.004907e-01 
8.768721e-01 
8.536632e-01 
8.308914e-01 
8.085862e-01 
7.867794e-01 
7.655051e-01 
7.448003e-01 
7.247041e-01 
7.052587e-01 
6.865089e-01 
6.685026e-01 
6.512901e-01 
6.349248e-01 
6.194633e-01 
6.049646e-01 
5.914890e-01 
5.790973e-01 
5.678510e-01 
5.578106e-01 
5.490314e-01 
5.415636e-01 
5.354553e-01 
5.307496e-01 
5.274839e-01 
5.256927e-01 
5.261425e-01 
5.287016e-01 
5.329961e-01 
5.388393e-01 
5.461277e-01 
5.547887e-01 
5.647576e-01 
5.759699e-01 
5.883611e-01 
6.018660e-01 
6.164202e-01 
6.319609e-01 
6.484268e-01 
6.657593e-01 
6.839025e-01 
7.028035e-01 
7.224127e-01 
7.426833e-01 
7.635718e-01 
7.850374e-01 
8.070424e-01 
8.295515e-01 
8.525323e-01 
8.759543e-01 
8.997916e-01 
1.218863e+00 
1.191441e+00 
1.164155e+00 
1.137051e+00 
1.110145e+00 
1.083449e+00 
1.056977e+00 
1.030742e+00 
1.004759e+00 
9.790452e-01 
9.536179e-01 
9.284963e-01 
9.037010e-01 
8.792539e-01 
8.551789e-01 
8.315017e-01 
8.082501e-01 
7.854540e-01 
7.631459e-01 
7.413609e-01 
7.201369e-01 
6.995146e-01 
6.795379e-01 
6.602536e-01 
6.417120e-01 
6.239663e-01 
6.070734e-01 
5.910944e-01 
5.760926e-01 
5.621330e-01 
5.492823e-01 
5.376077e-01 
5.271760e-01 
5.180492e-01 
5.102840e-01 
5.039344e-01 
4.990487e-01 
4.956683e-01 
4.938306e-01 
4.943670e-01 
4.970785e-01 
5.015772e-01 
5.076780e-01 
5.152776e-01 
5.242993e-01 
5.346725e-01 
5.463261e-01 
5.591888e-01 
5.731893e-01 
5.882574e-01 
6.043248e-01 
6.213257e-01 
6.391975e-01 
6.578807e-01 
6.773198e-01 
6.974623e-01 
7.182598e-01 
7.396672e-01 
7.616425e-01 
7.841471e-01 
8.071451e-01 
8.306030e-01 
8.544903e-01 
8.787805e-01 
1.203120e+00 
1.175383e+00 
1.147776e+00 
1.120341e+00 
1.093092e+00 
1.066043e+00 
1.039205e+00 
1.012593e+00 
9.862214e-01 
9.601065e-01 
9.342656e-01 
9.087175e-01 
8.834825e-01 
8.585825e-01 
8.340413e-01 
8.098846e-01 
7.861405e-01 
7.628393e-01 
7.400140e-01 
7.177005e-01 
6.959378e-01 
6.747679e-01 
6.542363e-01 
6.343919e-01 
6.152873e-01 
5.969789e-01 
5.795271e-01 
5.629976e-01 
5.474583e-01 
5.329796e-01 
5.196346e-01 
5.074975e-01 
4.966427e-01 
4.871396e-01 
4.790522e-01 
4.724412e-01 
4.673607e-01 
4.638568e-01 
4.619706e-01 
4.626036e-01 
4.654773e-01 
4.701946e-01 
4.765739e-01 
4.845108e-01 
4.939234e-01 
5.047335e-01 
5.168623e-01 
5.302307e-01 
5.447605e-01 
5.603748e-01 
5.769998e-01 
5.945647e-01 
6.130025e-01 
6.322504e-01 
6.522498e-01 
6.729461e-01 
6.942889e-01 
7.162315e-01 
7.387309e-01 
7.617475e-01 
7.852447e-01 
8.091888e-01 
8.335488e-01 
8.582977e-01 
1.187943e+00 
1.159894e+00 
1.131968e+00 
1.104203e+00 
1.076613e+00 
1.049212e+00 
1.022010e+00 
9.950214e-01 
9.682607e-01 
9.417437e-01 
9.154873e-01 
8.895100e-01 
8.638316e-01 
8.384739e-01 
8.134604e-01 
7.888169e-01 
7.645713e-01 
7.407544e-01 
7.173995e-01 
6.945432e-01 
6.722253e-01 
6.504889e-01 
6.293812e-01 
6.089529e-01 
5.892592e-01 
5.703594e-01 
5.523178e-01 
5.352044e-01 
5.190924e-01 
5.040581e-01 
4.901815e-01 
4.775448e-01 
4.662306e-01 
4.563172e-01 
4.478775e-01 
4.409803e-01 
4.356864e-01 
4.320472e-01 
4.301083e-01 
4.308422e-01 
4.338856e-01 
4.388364e-01 
4.455167e-01 
4.538195e-01 
4.636558e-01 
4.749382e-01 
4.875787e-01 
5.014896e-01 
5.165843e-01 
5.327790e-01 
5.499936e-01 
5.681521e-01 
5.871829e-01 
6.070199e-01 
6.276016e-01 
6.488713e-01 
6.707765e-01 
6.932695e-01 
7.163060e-01 
7.398456e-01 
7.638512e-01 
7.882888e-01 
8.131272e-01 
8.383393e-01 
1.173347e+00 
1.144992e+00 
1.116751e+00 
1.088660e+00 
1.060733e+00 
1.032982e+00 
1.005419e+00 
9.780556e-01 
9.509071e-01 
9.239883e-01 
8.973158e-01 
8.709075e-01 
8.447831e-01 
8.189638e-01 
7.934731e-01 
7.683362e-01 
7.435814e-01 
7.192391e-01 
6.953430e-01 
6.719302e-01 
6.490410e-01 
6.267196e-01 
6.050145e-01 
5.839782e-01 
5.636683e-01 
5.441471e-01 
5.254828e-01 
5.077500e-01 
4.910271e-01 
4.753972e-01 
4.609479e-01 
4.477704e-01 
4.359570e-01 
4.255963e-01 
4.167716e-01 
4.095614e-01 
4.040343e-01 
4.002477e-01 
3.982528e-01 
3.990917e-01 
4.023129e-01 
4.075149e-01 
4.145228e-01 
4.232247e-01 
4.335222e-01 
4.453171e-01 
4.585107e-01 
4.730048e-01 
4.887041e-01 
5.055168e-01 
5.233559e-01 
5.421397e-01 
5.617926e-01 
5.822448e-01 
6.034322e-01 
6.252958e-01 
6.477818e-01 
6.708409e-01 
6.944278e-01 
7.185017e-01 
7.430250e-01 
7.679636e-01 
7.932863e-01 
8.189663e-01 
1.159355e+00 
1.130699e+00 
1.102148e+00 
1.073736e+00 
1.045477e+00 
1.017381e+00 
9.894597e-01 
9.617255e-01 
9.341917e-01 
9.068731e-01 
8.797855e-01 
8.529465e-01 
8.263749e-01 
8.000918e-01 
7.741199e-01 
7.484846e-01 
7.232135e-01 
6.983372e-01 
6.738893e-01 
6.499070e-01 
6.264311e-01 
6.035065e-01 
5.811827e-01 
5.595141e-01 
5.385603e-01 
5.183866e-01 
4.990651e-01 
4.806746e-01 
4.632996e-01 
4.470302e-01 
4.319628e-01 
4.181983e-01 
4.058406e-01 
3.949905e-01 
3.857436e-01 
3.781896e-01 
3.724066e-01 
3.684589e-01 
3.664044e-01 
3.673519e-01 
3.707603e-01 
3.762344e-01 
3.836009e-01 
3.927401e-01 
4.035415e-01 
4.158941e-01 
4.296865e-01 
4.448092e-01 
4.611564e-01 
4.786275e-01 
4.971283e-01 
5.165716e-01 
5.368772e-01 
5.579721e-01 
5.797892e-01 
6.022677e-01 
6.253521e-01 
6.489920e-01 
6.731416e-01 
6.977596e-01 
7.228084e-01 
7.482540e-01 
7.740655e-01 
8.002161e-01 
1.145990e+00 
1.117038e+00 
1.088184e+00 
1.059457e+00 
1.030872e+00 
1.002436e+00 
9.741626e-01 
9.460619e-01 
9.181470e-01 
8.904319e-01 
8.629319e-01 
8.356637e-01 
8.086457e-01 
7.818981e-01 
7.554433e-01 
7.293058e-01 
7.035132e-01 
6.780954e-01 
6.530861e-01 
6.285223e-01 
6.044450e-01 
5.808996e-01 
5.579365e-01 
5.356114e-01 
5.139858e-01 
4.931278e-01 
4.731129e-01 
4.540246e-01 
4.359531e-01 
4.189964e-01 
4.032603e-01 
3.888574e-01 
3.759045e-01 
3.645167e-01 
3.548045e-01 
3.468713e-01 
3.408062e-01 
3.366816e-01 
3.345636e-01 
3.356229e-01 
3.392292e-01 
3.450007e-01 
3.527621e-01 
3.623823e-01 
3.737363e-01 
3.866976e-01 
4.011401e-01 
4.169409e-01 
4.339829e-01 
4.521559e-01 
4.713583e-01 
4.914969e-01 
5.124872e-01 
5.342523e-01 
5.567229e-01 
5.798361e-01 
6.035352e-01 
6.277692e-01 
6.524920e-01 
6.776623e-01 
7.032426e-01 
7.291993e-01 
7.555020e-01 
7.821243e-01 
1.133269e+00 
1.104030e+00 
1.074879e+00 
1.045846e+00 
1.016940e+00 
9.881728e-01 
9.595529e-01 
9.310917e-01 
9.028013e-01 
8.746948e-01 
8.467867e-01 
8.190929e-01 
7.916310e-01 
7.644204e-01 
7.374828e-01 
7.108420e-01 
6.845246e-01 
6.585604e-01 
6.329821e-01 
6.078266e-01 
5.831348e-01 
5.589525e-01 
5.353306e-01 
5.123258e-01 
4.900012e-01 
4.684270e-01 
4.476818e-01 
4.278533e-01 
4.090380e-01 
3.913420e-01 
3.748817e-01 
3.597825e-01 
3.461765e-01 
3.341956e-01 
3.239683e-01 
3.156148e-01 
3.092372e-01 
3.049175e-01 
3.027321e-01 
3.039050e-01 
3.077225e-01 
3.138220e-01 
3.220211e-01 
3.321733e-01 
3.441357e-01 
3.577635e-01 
3.729132e-01 
3.894469e-01 
4.072344e-01 
4.261558e-01 
4.461016e-01 
4.669727e-01 
4.886797e-01 
5.111423e-01 
5.342889e-01 
5.580553e-01 
5.823840e-01 
6.072237e-01 
6.325284e-01 
6.582571e-01 
6.843729e-01 
7.108428e-01 
7.376370e-01 
7.647299e-01 
1.121199e+00 
1.091682e+00 
1.062244e+00 
1.032912e+00 
1.003697e+00 
9.746053e-01 
9.456480e-01 
9.168348e-01 
8.881768e-01 
8.596864e-01 
8.313771e-01 
8.032641e-01 
7.753637e-01 
7.476947e-01 
7.202776e-01 
6.931352e-01 
6.662933e-01 
6.397806e-01 
6.136292e-01 
5.878752e-01 
5.625592e-01 
5.377266e-01 
5.134287e-01 
4.897228e-01 
4.666729e-01 
4.443508e-01 
4.228376e-01 
4.022248e-01 
3.826151e-01 
3.641232e-01 
3.468770e-01 
3.310166e-01 
3.166913e-01 
3.040533e-01 
2.932527e-01 
2.844303e-01 
2.777047e-01 
2.731687e-01 
2.709114e-01 
2.721977e-01 
2.762431e-01 
2.827078e-01 
2.913952e-01 
3.021391e-01 
3.147748e-01 
3.291351e-01 
3.450563e-01 
3.623829e-01 
3.809711e-01 
4.006905e-01 
4.214233e-01 
4.430642e-01 
4.655194e-01 
4.887057e-01 
5.125496e-01 
5.369860e-01 
5.619573e-01 
5.874122e-01 
6.133054e-01 
6.395964e-01 
6.662493e-01 
6.932320e-01 
7.205160e-01 
7.480763e-01 
1.109778e+00 
1.079996e+00 
1.050283e+00 
1.020665e+00 
9.911506e-01 
9.617475e-01 
9.324644e-01 
9.033106e-01 
8.742963e-01 
8.454330e-01 
8.167331e-01 
7.882107e-01 
7.598812e-01 
7.317620e-01 
7.038725e-01 
6.762345e-01 
6.488722e-01 
6.218132e-01 
5.950885e-01 
5.687331e-01 
5.427867e-01 
5.172942e-01 
4.923064e-01 
4.678805e-01 
4.440811e-01 
4.209807e-01 
3.986623e-01 
3.772207e-01 
3.567645e-01 
3.374169e-01 
3.193181e-01 
3.026241e-01 
2.875044e-01 
2.741350e-01 
2.626920e-01 
2.533425e-01 
2.462257e-01 
2.414474e-01 
2.391126e-01 
2.404935e-01 
2.447850e-01 
2.516596e-01 
2.608953e-01 
2.723016e-01 
2.856866e-01 
3.008561e-01 
3.176220e-01 
3.358091e-01 
3.552589e-01 
3.758296e-01 
3.973950e-01 
4.198440e-01 
4.430790e-01 
4.670146e-01 
4.915763e-01 
5.166986e-01 
5.423242e-01 
5.684026e-01 
5.948893e-01 
6.217451e-01 
6.489354e-01 
6.764294e-01 
7.041998e-01 
7.322231e-01 
1.099126e+00 
1.069087e+00 
1.039109e+00 
1.009214e+00 
9.794103e-01 
9.497052e-01 
9.201061e-01 
8.906215e-01 
8.612605e-01 
8.320337e-01 
8.029522e-01 
7.740290e-01 
7.452783e-01 
7.167161e-01 
6.883604e-01 
6.602314e-01 
6.323520e-01 
6.047482e-01 
5.774496e-01 
5.504897e-01 
5.239069e-01 
4.977450e-01 
4.720538e-01 
4.468894e-01 
4.223156e-01 
3.984048e-01 
3.752405e-01 
3.529203e-01 
3.315580e-01 
3.112860e-01 
2.922571e-01 
2.746448e-01 
2.586412e-01 
2.444506e-01 
2.322819e-01 
2.223352e-01 
2.147765e-01 
2.097260e-01 
2.073084e-01 
2.087967e-01 
2.133635e-01 
2.207046e-01 
2.305614e-01 
2.427141e-01 
2.569370e-01 
2.730022e-01 
2.906931e-01 
3.098129e-01 
3.301869e-01 
3.516613e-01 
3.741023e-01 
3.973938e-01 
4.214354e-01 
4.461407e-01 
4.714347e-01 
4.972526e-01 
5.235381e-01 
5.502420e-01 
5.773215e-01 
6.047391e-01 
6.324617e-01 
6.604604e-01 
6.887095e-01 
7.171869e-01 
1.089226e+00 
1.058943e+00 
1.028712e+00 
9.985525e-01 
9.684726e-01 
9.384783e-01 
9.085762e-01 
8.787738e-01 
8.490793e-01 
8.195019e-01 
7.900518e-01 
7.607404e-01 
7.315807e-01 
7.025872e-01 
6.737762e-01 
6.451663e-01 
6.167786e-01 
5.886373e-01 
5.607702e-01 
5.332089e-01 
5.059903e-01 
4.791561e-01 
4.527542e-01 
4.268386e-01 
4.014710e-01 
3.767224e-01 
3.526756e-01 
3.294298e-01 
3.071033e-01 
2.858369e-01 
2.657957e-01 
2.471717e-01 
2.301820e-01 
2.150644e-01 
2.020690e-01 
1.914397e-01 
1.833766e-01 
1.780171e-01 
1.755101e-01 
1.771027e-01 
1.819762e-01 
1.898528e-01 
2.004183e-01 
2.134190e-01 
2.285848e-01 
2.456460e-01 
2.643531e-01 
2.844851e-01 
3.058498e-01 
3.282821e-01 
3.516413e-01 
3.758080e-01 
4.006803e-01 
4.261718e-01 
4.522086e-01 
4.787274e-01 
5.056737e-01 
5.330008e-01 
5.606679e-01 
5.886397e-01 
6.168854e-01 
6.453781e-01 
6.740942e-01 
7.030132e-01 
1.080085e+00 
1.049572e+00 
1.019102e+00 
9.886932e-01 
9.583522e-01 
9.280842e-01 
8.978949e-01 
8.677908e-01 
8.377790e-01 
8.078675e-01 
7.780652e-01 
7.483823e-01 
7.188300e-01 
6.894212e-01 
6.601706e-01 
6.310947e-01 
6.022127e-01 
5.735468e-01 
5.451225e-01 
5.169694e-01 
4.891218e-01 
4.616189e-01 
4.345053e-01 
4.078318e-01 
3.816565e-01 
3.560474e-01 
3.310857e-01 
3.068703e-01 
2.835226e-01 
2.611898e-01 
2.400485e-01 
2.203087e-01 
2.022148e-01 
1.860440e-01 
1.720987e-01 
1.606809e-01 
1.520373e-01 
1.463242e-01 
1.437206e-01 
1.454130e-01 
1.506321e-01 
1.591313e-01 
1.705131e-01 
1.844860e-01 
2.007208e-01 
2.188948e-01 
2.387203e-01 
2.599492e-01 
2.823723e-01 
3.058150e-01 
3.301319e-01 
3.552017e-01 
3.809235e-01 
4.072122e-01 
4.339965e-01 
4.612159e-01 
4.888189e-01 
5.167617e-01 
5.450065e-01 
5.735207e-01 
6.022763e-01 
6.312486e-01 
6.604164e-01 
6.897612e-01 
1.071730e+00 
1.041002e+00 
1.010308e+00 
9.796658e-01 
9.490801e-01 
9.185553e-01 
8.880964e-01 
8.577086e-01 
8.273981e-01 
7.971714e-01 
7.670364e-01 
7.370015e-01 
7.070764e-01 
6.772723e-01 
6.476018e-01 
6.180796e-01 
5.887226e-01 
5.595505e-01 
5.305865e-01 
5.018576e-01 
4.733948e-01 
4.452338e-01 
4.174150e-01 
3.899841e-01 
3.629945e-01 
3.365096e-01 
3.106073e-01 
2.853846e-01 
2.609628e-01 
2.374927e-01 
2.151594e-01 
1.941889e-01 
1.748542e-01 
1.574781e-01 
1.424292e-01 
1.300893e-01 
1.207704e-01 
1.146486e-01 
1.119403e-01 
1.137269e-01 
1.193401e-01 
1.285725e-01 
1.409041e-01 
1.560047e-01 
1.734610e-01 
1.928833e-01 
2.139386e-01 
2.363517e-01 
2.598990e-01 
2.843994e-01 
3.097061e-01 
3.356992e-01 
3.622807e-01 
3.893694e-01 
4.168981e-01 
4.448104e-01 
4.730590e-01 
5.016037e-01 
5.304104e-01 
5.594499e-01 
5.886972e-01 
6.181304e-01 
6.477307e-01 
6.774821e-01 
1.064181e+00 
1.033255e+00 
1.002355e+00 
9.714964e-01 
9.406840e-01 
9.099214e-01 
8.792124e-01 
8.485613e-01 
8.179731e-01 
7.874531e-01 
7.570078e-01 
7.266440e-01 
6.963699e-01 
6.661948e-01 
6.361292e-01 
6.061856e-01 
5.763786e-01 
5.467254e-01 
5.172464e-01 
4.879651e-01 
4.589090e-01 
4.301090e-01 
4.015999e-01 
3.734217e-01 
3.456213e-01 
3.182562e-01 
2.913988e-01 
2.651415e-01 
2.396019e-01 
2.149290e-01 
1.913114e-01 
1.689867e-01 
1.482543e-01 
1.294880e-01 
1.131402e-01 
9.970567e-02 
8.959153e-02 
8.299179e-02 
8.016969e-02 
8.204357e-02 
8.811159e-02 
9.822107e-02 
1.116703e-01 
1.280974e-01 
1.469617e-01 
1.677860e-01 
1.901887e-01 
2.138714e-01 
2.386015e-01 
2.641971e-01 
2.905147e-01 
3.174397e-01 
3.448800e-01 
3.727608e-01 
4.010206e-01 
4.296088e-01 
4.584832e-01 
4.876082e-01 
5.169541e-01 
5.464954e-01 
5.762105e-01 
6.060806e-01 
6.360896e-01 
6.662241e-01 
1.057464e+00 
1.026358e+00 
9.952688e-01 
9.642128e-01 
9.331934e-01 
9.022134e-01 
8.712758e-01 
8.403840e-01 
8.095416e-01 
7.787530e-01 
7.480231e-01 
7.173572e-01 
6.867619e-01 
6.562445e-01 
6.258136e-01 