# vtk DataFile Version 2.0 
Quadtree Mesh 
ASCII 
DATASET UNSTRUCTURED_GRID 
POINTS 4096 double 
-1.000000e+00 -1.000000e+00 0.000000e+00
-9.682540e-01 -1.000000e+00 0.000000e+00
-9.365079e-01 -1.000000e+00 0.000000e+00
-9.047619e-01 -1.000000e+00 0.000000e+00
-8.730159e-01 -1.000000e+00 0.000000e+00
-8.412698e-01 -1.000000e+00 0.000000e+00
-8.095238e-01 -1.000000e+00 0.000000e+00
-7.777778e-01 -1.000000e+00 0.000000e+00
-7.460317e-01 -1.000000e+00 0.000000e+00
-7.142857e-01 -1.000000e+00 0.000000e+00
-6.825397e-01 -1.000000e+00 0.000000e+00
-6.507937e-01 -1.000000e+00 0.000000e+00
-6.190476e-01 -1.000000e+00 0.000000e+00
-5.873016e-01 -1.000000e+00 0.000000e+00
-5.555556e-01 -1.000000e+00 0.000000e+00
-5.238095e-01 -1.000000e+00 0.000000e+00
-4.920635e-01 -1.000000e+00 0.000000e+00
-4.603175e-01 -1.000000e+00 0.000000e+00
-4.285714e-01 -1.000000e+00 0.000000e+00
-3.968254e-01 -1.000000e+00 0.000000e+00
-3.650794e-01 -1.000000e+00 0.000000e+00
-3.333333e-01 -1.000000e+00 0.000000e+00
-3.015873e-01 -1.000000e+00 0.000000e+00
-2.698413e-01 -1.000000e+00 0.000000e+00
-2.380952e-01 -1.000000e+00 0.000000e+00
-2.063492e-01 -1.000000e+00 0.000000e+00
-1.746032e-01 -1.000000e+00 0.000000e+00
-1.428571e-01 -1.000000e+00 0.000000e+00
-1.111111e-01 -1.000000e+00 0.000000e+00
-7.936508e-02 -1.000000e+00 0.000000e+00
-4.761905e-02 -1.000000e+00 0.000000e+00
-1.587302e-02 -1.000000e+00 0.000000e+00
1.587302e-02 -1.000000e+00 0.000000e+00
4.761905e-02 -1.000000e+00 0.000000e+00
7.936508e-02 -1.000000e+00 0.000000e+00
1.111111e-01 -1.000000e+00 0.000000e+00
1.428571e-01 -1.000000e+00 0.000000e+00
1.746032e-01 -1.000000e+00 0.000000e+00
2.063492e-01 -1.000000e+00 0.000000e+00
2.380952e-01 -1.000000e+00 0.000000e+00
2.698413e-01 -1.000000e+00 0.000000e+00
3.015873e-01 -1.000000e+00 0.000000e+00
3.333333e-01 -1.000000e+00 0.000000e+00
3.650794e-01 -1.000000e+00 0.000000e+00
3.968254e-01 -1.000000e+00 0.000000e+00
4.285714e-01 -1.000000e+00 0.000000e+00
4.603175e-01 -1.000000e+00 0.000000e+00
4.920635e-01 -1.000000e+00 0.000000e+00
5.238095e-01 -1.000000e+00 0.000000e+00
5.555556e-01 -1.000000e+00 0.000000e+00
5.873016e-01 -1.000000e+00 0.000000e+00
6.190476e-01 -1.000000e+00 0.000000e+00
6.507937e-01 -1.000000e+00 0.000000e+00
6.825397e-01 -1.000000e+00 0.000000e+00
7.142857e-01 -1.000000e+00 0.000000e+00
7.460317e-01 -1.000000e+00 0.000000e+00
7.777778e-01 -1.000000e+00 0.000000e+00
8.095238e-01 -1.000000e+00 0.000000e+00
8.412698e-01 -1.000000e+00 0.000000e+00
8.730159e-01 -1.000000e+00 0.000000e+00
9.047619e-01 -1.000000e+00 0.000000e+00
9.365079e-01 -1.000000e+00 0.000000e+00
9.682540e-01 -1.000000e+00 0.000000e+00
1.000000e+00 -1.000000e+00 0.000000e+00
-1.000000e+00 -9.682540e-01 0.000000e+00
-9.682540e-01 -9.682540e-01 0.000000e+00
-9.365079e-01 -9.682540e-01 0.000000e+00
-9.047619e-01 -9.682540e-01 0.000000e+00
-8.730159e-01 -9.682540e-01 0.000000e+00
-8.412698e-01 -9.682540e-01 0.000000e+00
-8.095238e-01 -9.682540e-01 0.000000e+00
-7.777778e-01 -9.682540e-01 0.000000e+00
-7.460317e-01 -9.682540e-01 0.000000e+00
-7.142857e-01 -9.682540e-01 0.000000e+00
-6.825397e-01 -9.682540e-01 0.000000e+00
-6.507937e-01 -9.682540e-01 0.000000e+00
-6.190476e-01 -9.682540e-01 0.000000e+00
-5.873016e-01 -9.682540e-01 0.000000e+00
-5.555556e-01 -9.682540e-01 0.000000e+00
-5.238095e-01 -9.682540e-01 0.000000e+00
-4.920635e-01 -9.682540e-01 0.000000e+00
-4.603175e-01 -9.682540e-01 0.000000e+00
-4.285714e-01 -9.682540e-01 0.000000e+00
-3.968254e-01 -9.682540e-01 0.000000e+00
-3.650794e-01 -9.682540e-01 0.000000e+00
-3.333333e-01 -9.682540e-01 0.000000e+00
-3.015873e-01 -9.682540e-01 0.000000e+00
-2.698413e-01 -9.682540e-01 0.000000e+00
-2.380952e-01 -9.682540e-01 0.000000e+00
-2.063492e-01 -9.682540e-01 0.000000e+00
-1.746032e-01 -9.682540e-01 0.000000e+00
-1.428571e-01 -9.682540e-01 0.000000e+00
-1.111111e-01 -9.682540e-01 0.000000e+00
-7.936508e-02 -9.682540e-01 0.000000e+00
-4.761905e-02 -9.682540e-01 0.000000e+00
-1.587302e-02 -9.682540e-01 0.000000e+00
1.587302e-02 -9.682540e-01 0.000000e+00
4.761905e-02 -9.682540e-01 0.000000e+00
7.936508e-02 -9.682540e-01 0.000000e+00
1.111111e-01 -9.682540e-01 0.000000e+00
1.428571e-01 -9.682540e-01 0.000000e+00
1.746032e-01 -9.682540e-01 0.000000e+00
2.063492e-01 -9.682540e-01 0.000000e+00
2.380952e-01 -9.682540e-01 0.000000e+00
2.698413e-01 -9.682540e-01 0.000000e+00
3.015873e-01 -9.682540e-01 0.000000e+00
3.333333e-01 -9.682540e-01 0.000000e+00
3.650794e-01 -9.682540e-01 0.000000e+00
3.968254e-01 -9.682540e-01 0.000000e+00
4.285714e-01 -9.682540e-01 0.000000e+00
4.603175e-01 -9.682540e-01 0.000000e+00
4.920635e-01 -9.682540e-01 0.000000e+00
5.238095e-01 -9.682540e-01 0.000000e+00
5.555556e-01 -9.682540e-01 0.000000e+00
5.873016e-01 -9.682540e-01 0.000000e+00
6.190476e-01 -9.682540e-01 0.000000e+00
6.507937e-01 -9.682540e-01 0.000000e+00
6.825397e-01 -9.682540e-01 0.000000e+00
7.142857e-01 -9.682540e-01 0.000000e+00
7.460317e-01 -9.682540e-01 0.000000e+00
7.777778e-01 -9.682540e-01 0.000000e+00
8.095238e-01 -9.682540e-01 0.000000e+00
8.412698e-01 -9.682540e-01 0.000000e+00
8.730159e-01 -9.682540e-01 0.000000e+00
9.047619e-01 -9.682540e-01 0.000000e+00
9.365079e-01 -9.682540e-01 0.000000e+00
9.682540e-01 -9.682540e-01 0.000000e+00
1.000000e+00 -9.682540e-01 0.000000e+00
-1.000000e+00 -9.365079e-01 0.000000e+00
-9.682540e-01 -9.365079e-01 0.000000e+00
-9.365079e-01 -9.365079e-01 0.000000e+00
-9.047619e-01 -9.365079e-01 0.000000e+00
-8.730159e-01 -9.365079e-01 0.000000e+00
-8.412698e-01 -9.365079e-01 0.000000e+00
-8.095238e-01 -9.365079e-01 0.000000e+00
-7.777778e-01 -9.365079e-01 0.000000e+00
-7.460317e-01 -9.365079e-01 0.000000e+00
-7.142857e-01 -9.365079e-01 0.000000e+00
-6.825397e-01 -9.365079e-01 0.000000e+00
-6.507937e-01 -9.365079e-01 0.000000e+00
-6.190476e-01 -9.365079e-01 0.000000e+00
-5.873016e-01 -9.365079e-01 0.000000e+00
-5.555556e-01 -9.365079e-01 0.000000e+00
-5.238095e-01 -9.365079e-01 0.000000e+00
-4.920635e-01 -9.365079e-01 0.000000e+00
-4.603175e-01 -9.365079e-01 0.000000e+00
-4.285714e-01 -9.365079e-01 0.000000e+00
-3.968254e-01 -9.365079e-01 0.000000e+00
-3.650794e-01 -9.365079e-01 0.000000e+00
-3.333333e-01 -9.365079e-01 0.000000e+00
-3.015873e-01 -9.365079e-01 0.000000e+00
-2.698413e-01 -9.365079e-01 0.000000e+00
-2.380952e-01 -9.365079e-01 0.000000e+00
-2.063492e-01 -9.365079e-01 0.000000e+00
-1.746032e-01 -9.365079e-01 0.000000e+00
-1.428571e-01 -9.365079e-01 0.000000e+00
-1.111111e-01 -9.365079e-01 0.000000e+00
-7.936508e-02 -9.365079e-01 0.000000e+00
-4.761905e-02 -9.365079e-01 0.000000e+00
-1.587302e-02 -9.365079e-01 0.000000e+00
1.587302e-02 -9.365079e-01 0.000000e+00
4.761905e-02 -9.365079e-01 0.000000e+00
7.936508e-02 -9.365079e-01 0.000000e+00
1.111111e-01 -9.365079e-01 0.000000e+00
1.428571e-01 -9.365079e-01 0.000000e+00
1.746032e-01 -9.365079e-01 0.000000e+00
2.063492e-01 -9.365079e-01 0.000000e+00
2.380952e-01 -9.365079e-01 0.000000e+00
2.698413e-01 -9.365079e-01 0.000000e+00
3.015873e-01 -9.365079e-01 0.000000e+00
3.333333e-01 -9.365079e-01 0.000000e+00
3.650794e-01 -9.365079e-01 0.000000e+00
3.968254e-01 -9.365079e-01 0.000000e+00
4.285714e-01 -9.365079e-01 0.000000e+00
4.603175e-01 -9.365079e-01 0.000000e+00
4.920635e-01 -9.365079e-01 0.000000e+00
5.238095e-01 -9.365079e-01 0.000000e+00
5.555556e-01 -9.365079e-01 0.000000e+00
5.873016e-01 -9.365079e-01 0.000000e+00
6.190476e-01 -9.365079e-01 0.000000e+00
6.507937e-01 -9.365079e-01 0.000000e+00
6.825397e-01 -9.365079e-01 0.000000e+00
7.142857e-01 -9.365079e-01 0.000000e+00
7.460317e-01 -9.365079e-01 0.000000e+00
7.777778e-01 -9.365079e-01 0.000000e+00
8.095238e-01 -9.365079e-01 0.000000e+00
8.412698e-01 -9.365079e-01 0.000000e+00
8.730159e-01 -9.365079e-01 0.000000e+00
9.047619e-01 -9.365079e-01 0.000000e+00
9.365079e-01 -9.365079e-01 0.000000e+00
9.682540e-01 -9.365079e-01 0.000000e+00
1.000000e+00 -9.365079e-01 0.000000e+00
-1.000000e+00 -9.047619e-01 0.000000e+00
-9.682540e-01 -9.047619e-01 0.000000e+00
-9.365079e-01 -9.047619e-01 0.000000e+00
-9.047619e-01 -9.047619e-01 0.000000e+00
-8.730159e-01 -9.047619e-01 0.000000e+00
-8.412698e-01 -9.047619e-01 0.000000e+00
-8.095238e-01 -9.047619e-01 0.000000e+00
-7.777778e-01 -9.047619e-01 0.000000e+00
-7.460317e-01 -9.047619e-01 0.000000e+00
-7.142857e-01 -9.047619e-01 0.000000e+00
-6.825397e-01 -9.047619e-01 0.000000e+00
-6.507937e-01 -9.047619e-01 0.000000e+00
-6.190476e-01 -9.047619e-01 0.000000e+00
-5.873016e-01 -9.047619e-01 0.000000e+00
-5.555556e-01 -9.047619e-01 0.000000e+00
-5.238095e-01 -9.047619e-01 0.000000e+00
-4.920635e-01 -9.047619e-01 0.000000e+00
-4.603175e-01 -9.047619e-01 0.000000e+00
-4.285714e-01 -9.047619e-01 0.000000e+00
-3.968254e-01 -9.047619e-01 0.000000e+00
-3.650794e-01 -9.047619e-01 0.000000e+00
-3.333333e-01 -9.047619e-01 0.000000e+00
-3.015873e-01 -9.047619e-01 0.000000e+00
-2.698413e-01 -9.047619e-01 0.000000e+00
-2.380952e-01 -9.047619e-01 0.000000e+00
-2.063492e-01 -9.047619e-01 0.000000e+00
-1.746032e-01 -9.047619e-01 0.000000e+00
-1.428571e-01 -9.047619e-01 0.000000e+00
-1.111111e-01 -9.047619e-01 0.000000e+00
-7.936508e-02 -9.047619e-01 0.000000e+00
-4.761905e-02 -9.047619e-01 0.000000e+00
-1.587302e-02 -9.047619e-01 0.000000e+00
1.587302e-02 -9.047619e-01 0.000000e+00
4.761905e-02 -9.047619e-01 0.000000e+00
7.936508e-02 -9.047619e-01 0.000000e+00
1.111111e-01 -9.047619e-01 0.000000e+00
1.428571e-01 -9.047619e-01 0.000000e+00
1.746032e-01 -9.047619e-01 0.000000e+00
2.063492e-01 -9.047619e-01 0.000000e+00
2.380952e-01 -9.047619e-01 0.000000e+00
2.698413e-01 -9.047619e-01 0.000000e+00
3.015873e-01 -9.047619e-01 0.000000e+00
3.333333e-01 -9.047619e-01 0.000000e+00
3.650794e-01 -9.047619e-01 0.000000e+00
3.968254e-01 -9.047619e-01 0.000000e+00
4.285714e-01 -9.047619e-01 0.000000e+00
4.603175e-01 -9.047619e-01 0.000000e+00
4.920635e-01 -9.047619e-01 0.000000e+00
5.238095e-01 -9.047619e-01 0.000000e+00
5.555556e-01 -9.047619e-01 0.000000e+00
5.873016e-01 -9.047619e-01 0.000000e+00
6.190476e-01 -9.047619e-01 0.000000e+00
[...]
POINT_DATA 4096 
SCALARS concentration double 1 
LOOKUP_TABLE default 
1.084676e+00 
1.065483e+00 
1.046790e+00 
1.028614e+00 
1.010976e+00 
9.939020e-01 
9.774163e-01 
9.615456e-01 
9.463181e-01 
9.317625e-01 
9.179074e-01 
9.047817e-01 
8.924148e-01 
8.808359e-01 
8.700743e-01 
8.601588e-01 
8.511176e-01 
8.429779e-01 
8.357653e-01 
8.295038e-01 
8.242149e-01 
8.199170e-01 
8.166239e-01 
8.143341e-01 
8.128866e-01 
8.131777e-01 
8.150817e-01 
8.182628e-01 
8.225955e-01 
8.280084e-01 
8.344521e-01 
8.418871e-01 
8.502760e-01 
8.595833e-01 
8.697764e-01 
8.808236e-01 
8.926939e-01 
9.053563e-01 
9.187804e-01 
9.329359e-01 
9.477933e-01 
9.633233e-01 
9.794976e-01 
9.962887e-01 
1.013670e+00 
1.031615e+00 
1.050099e+00 
1.069098e+00 
1.088589e+00 
1.108549e+00 
1.128958e+00 
1.149796e+00 
1.171042e+00 
1.192678e+00 
1.214686e+00 
1.237050e+00 
1.259754e+00 
1.282782e+00 
1.306120e+00 
1.329753e+00 
1.353669e+00 
1.377856e+00 
1.402300e+00 
1.426991e+00 
1.059407e+00 
1.039841e+00 
1.020773e+00 
1.002221e+00 
9.842076e-01 
9.667591e-01 
9.499017e-01 
9.336633e-01 
9.180738e-01 
9.031630e-01 
8.889611e-01 
8.754991e-01 
8.628079e-01 
8.509190e-01 
8.398638e-01 
8.296732e-01 
8.203777e-01 
8.120067e-01 
8.045880e-01 
7.981476e-01 
7.927089e-01 
7.882920e-01 
7.849117e-01 
7.825667e-01 
7.811031e-01 
7.814727e-01 
7.834806e-01 
7.867893e-01 
7.912743e-01 
7.968647e-01 
8.035109e-01 
8.111723e-01 
8.198099e-01 
8.293861e-01 
8.398672e-01 
8.512196e-01 
8.634100e-01 
8.764053e-01 
8.901731e-01 
9.046815e-01 
9.198991e-01 
9.357952e-01 
9.523400e-01 
9.695046e-01 
9.872609e-01 
1.005582e+00 
1.024442e+00 
1.043815e+00 
1.063679e+00 
1.084009e+00 
1.104785e+00 
1.125985e+00 
1.147590e+00 
1.169580e+00 
1.191938e+00 
1.214646e+00 
1.237689e+00 
1.261050e+00 
1.284715e+00 
1.308670e+00 
1.332902e+00 
1.357398e+00 
1.382146e+00 
1.407136e+00 
1.034428e+00 
1.014479e+00 
9.950247e-01 
9.760846e-01 
9.576832e-01 
9.398472e-01 
9.226043e-01 
9.059839e-01 
8.900172e-01 
8.747357e-01 
8.601713e-01 
8.463568e-01 
8.333253e-01 
8.211104e-01 
8.097458e-01 
7.992649e-01 
7.897006e-01 
7.810846e-01 
7.734475e-01 
7.668173e-01 
7.612197e-01 
7.566765e-01 
7.532038e-01 
7.508009e-01 
7.493207e-01 
7.497723e-01 
7.518877e-01 
7.553293e-01 
7.599738e-01 
7.657510e-01 
7.726106e-01 
7.805108e-01 
7.894107e-01 
7.992710e-01 
8.100558e-01 
8.217295e-01 
8.342564e-01 
8.476011e-01 
8.617291e-01 
8.766065e-01 
8.922000e-01 
9.084773e-01 
9.254071e-01 
9.429590e-01 
9.611037e-01 
9.798131e-01 
9.990603e-01 
1.018819e+00 
1.039066e+00 
1.059776e+00 
1.080927e+00 
1.102498e+00 
1.124469e+00 
1.146820e+00 
1.169533e+00 
1.192590e+00 
1.215976e+00 
1.239674e+00 
1.263670e+00 
1.287950e+00 
1.312500e+00 
1.337309e+00 
1.362363e+00 
1.387651e+00 
1.009758e+00 
9.894140e-01 
9.695619e-01 
9.502217e-01 
9.314192e-01 
9.131820e-01 
8.955392e-01 
8.785217e-01 
8.621622e-01 
8.464937e-01 
8.315500e-01 
8.173660e-01 
8.039769e-01 
7.914189e-01 
7.797280e-01 
7.689403e-01 
7.590915e-01 
7.502160e-01 
7.423470e-01 
7.355152e-01 
7.297487e-01 
7.250711e-01 
7.215004e-01 
7.190365e-01 
7.175392e-01 
7.180764e-01 
7.203032e-01 
7.238835e-01 
7.286957e-01 
7.346698e-01 
7.417548e-01 
7.499074e-01 
7.590845e-01 
7.692445e-01 
7.803491e-01 
7.923605e-01 
8.052406e-01 
8.189515e-01 
8.334562e-01 
8.487187e-01 
8.647038e-01 
8.813775e-01 
8.987068e-01 
9.166598e-01 
9.352060e-01 
9.543161e-01 
9.739622e-01 
9.941174e-01 
1.014756e+00 
1.035855e+00 
1.057390e+00 
1.079340e+00 
1.101684e+00 
1.124402e+00 
1.147476e+00 
1.170888e+00 
1.194622e+00 
1.218661e+00 
1.242992e+00 
1.267599e+00 
1.292470e+00 
1.317593e+00 
1.342954e+00 
1.368543e+00 
9.854147e-01 
9.646653e-01 
9.444038e-01 
9.246513e-01 
9.054344e-01 
8.867820e-01 
8.687245e-01 
8.512942e-01 
8.345254e-01 
8.184528e-01 
8.031122e-01 
7.885405e-01 
7.747756e-01 
7.618560e-01 
7.498206e-01 
7.387084e-01 
7.285580e-01 
7.194069e-01 
7.112913e-01 
7.042449e-01 
6.982984e-01 
6.934778e-01 
6.898027e-01 
6.872741e-01 
6.857590e-01 
6.863856e-01 
6.887279e-01 
6.924535e-01 
6.974422e-01 
7.036245e-01 
7.109481e-01 
7.193678e-01 
7.288380e-01 
7.393148e-01 
7.507569e-01 
7.631237e-01 
7.763747e-01 
7.904695e-01 
8.053685e-01 
8.210332e-01 
8.374265e-01 
8.545123e-01 
8.722561e-01 
8.906245e-01 
9.095855e-01 
9.291089e-01 
9.491655e-01 
9.697277e-01 
9.907693e-01 
1.012266e+00 
1.034193e+00 
1.056529e+00 
1.079252e+00 
1.102344e+00 
1.125784e+00 
1.149555e+00 
1.173641e+00 
1.198026e+00 
1.222694e+00 
1.247631e+00 
1.272825e+00 
1.298263e+00 
1.323933e+00 
1.349824e+00 
9.614225e-01 
9.402577e-01 
9.195754e-01 
8.993978e-01 
8.797530e-01 
8.606709e-01 
8.421832e-01 
8.243239e-01 
8.071285e-01 
7.906337e-01 
7.748774e-01 
7.598988e-01 
7.457383e-01 
7.324372e-01 
7.200376e-01 
7.085814e-01 
6.981107e-01 
6.886664e-01 
6.802879e-01 
6.730124e-01 
6.668734e-01 
6.618998e-01 
6.581132e-01 
6.555158e-01 
6.539820e-01 
6.547016e-01 
6.571639e-01 
6.610416e-01 
6.662167e-01 
6.726193e-01 
6.801959e-01 
6.888985e-01 
6.986793e-01 
7.094911e-01 
7.212897e-01 
7.340312e-01 
7.476721e-01 
7.621697e-01 
7.774814e-01 
7.935663e-01 
8.103850e-01 
8.278995e-01 
8.460733e-01 
8.648717e-01 
8.842613e-01 
9.042106e-01 
9.246895e-01 
9.456695e-01 
9.671237e-01 
9.890266e-01 
1.011354e+00 
1.034084e+00 
1.057193e+00 
1.080664e+00 
1.104475e+00 
1.128610e+00 
1.153052e+00 
1.177784e+00 
1.202792e+00 
1.228062e+00 
1.253581e+00 
1.279336e+00 
1.305315e+00 
1.331507e+00 
9.378123e-01 
9.162215e-01 
8.951063e-01 
8.744907e-01 
8.544039e-01 
8.348767e-01 
8.159424e-01 
7.976365e-01 
7.799961e-01 
7.630598e-01 
7.468675e-01 
7.314612e-01 
7.168837e-01 
7.031796e-01 
6.903941e-01 
6.785727e-01 
6.677609e-01 
6.580038e-01 
6.493443e-01 
6.418234e-01 
6.354782e-01 
6.303405e-01 
6.264343e-01 
6.237633e-01 
6.222096e-01 
6.230251e-01 
6.256119e-01 
6.296494e-01 
6.350214e-01 
6.416577e-01 
6.495028e-01 
6.585060e-01 
6.686160e-01 
6.797827e-01 
6.919581e-01 
7.050949e-01 
7.191463e-01 
7.340664e-01 
7.498104e-01 
7.663343e-01 
7.835963e-01 
8.015564e-01 
8.201764e-01 
8.394197e-01 
8.592518e-01 
8.796399e-01 
9.005529e-01 
9.219615e-01 
9.438380e-01 
9.661564e-01 
9.888921e-01 
1.012022e+00 
1.035525e+00 
1.059379e+00 
1.083567e+00 
1.108069e+00 
1.132870e+00 
1.157953e+00 
1.183303e+00 
1.208907e+00 
1.234752e+00 
1.260824e+00 
1.287113e+00 
1.313607e+00 
9.146091e-01 
8.925803e-01 
8.710197e-01 
8.499525e-01 
8.294088e-01 
8.094207e-01 
7.900227e-01 
7.712519e-01 
7.531471e-01 
7.357487e-01 
7.190992e-01 
7.032428e-01 
6.882256e-01 
6.740951e-01 
6.609003e-01 
6.486905e-01 
6.375153e-01 
6.274239e-01 
6.184637e-01 
6.106796e-01 
6.041129e-01 
5.987990e-01 
5.947644e-01 
5.920148e-01 
5.904398e-01 
5.913532e-01 
5.940693e-01 
5.982751e-01 
6.038562e-01 
6.107414e-01 
6.188726e-01 
6.281957e-01 
6.386560e-01 
6.501993e-01 
6.627736e-01 
6.763278e-01 
6.908114e-01 
7.061753e-01 
7.223717e-01 
7.393541e-01 
7.570781e-01 
7.755013e-01 
7.945836e-01 
8.142870e-01 
8.345755e-01 
8.554151e-01 
8.767738e-01 
8.986214e-01 
9.209297e-01 
9.436720e-01 
9.668233e-01 
9.903603e-01 
1.014261e+00 
1.038505e+00 
1.063073e+00 
1.087946e+00 
1.113109e+00 
1.138544e+00 
1.164239e+00 
1.190178e+00 
1.216348e+00 
1.242739e+00 
1.269337e+00 
1.296133e+00 
8.918139e-01 
8.693362e-01 
8.473192e-01 
8.257886e-01 
8.047749e-01 
7.843114e-01 
7.644338e-01 
7.451809e-01 
7.265931e-01 
7.087128e-01 
6.915848e-01 
6.752562e-01 
6.597761e-01 
6.451956e-01 
6.315674e-01 
6.189451e-01 
6.073828e-01 
5.969343e-01 
5.876520e-01 
5.795856e-01 
5.727809e-01 
5.672775e-01 
5.631052e-01 
5.602724e-01 
5.586725e-01 
5.596731e-01 
5.625197e-01 
5.669020e-01 
5.727051e-01 
5.798559e-01 
5.882931e-01 
5.979582e-01 
6.087921e-01 
6.207360e-01 
6.337336e-01 
6.477295e-01 
6.626693e-01 
6.785003e-01 
6.951714e-01 
7.126335e-01 
7.308393e-01 
7.497443e-01 
7.693064e-01 
7.894859e-01 
8.102455e-01 
8.315500e-01 
8.533665e-01 
8.756641e-01 
8.984138e-01 
9.215886e-01 
9.451630e-01 
9.691136e-01 
9.934181e-01 
1.018056e+00 
1.043008e+00 
1.068255e+00 
1.093782e+00 
1.119573e+00 
1.145612e+00 
1.171887e+00 
1.198385e+00 
1.225093e+00 
1.252001e+00 
1.279098e+00 
8.694530e-01 
8.465168e-01 
8.240324e-01 
8.020256e-01 
7.805279e-01 
7.595734e-01 
7.391991e-01 
7.194452e-01 
7.003539e-01 
6.819698e-01 
6.643401e-01 
6.475146e-01 
6.315459e-01 
6.164889e-01 
6.024002e-01 
5.893384e-01 
5.773625e-01 
5.665315e-01 
5.569033e-01 
5.485334e-01 
5.414725e-01 
5.357650e-01 
5.314447e-01 
5.285224e-01 
5.268992e-01 
5.280029e-01 
5.309923e-01 
5.355654e-01 
5.416081e-01 
5.490453e-01 
5.578114e-01 
5.678435e-01 
5.790769e-01 
5.914479e-01 
6.048953e-01 
6.193589e-01 
6.347802e-01 
6.511024e-01 
6.682711e-01 
6.862341e-01 
7.049416e-01 
7.243467e-01 
7.444053e-01 
7.650760e-01 
7.863203e-01 
8.081018e-01 
8.303868e-01 
8.531435e-01 
8.763426e-01 
8.999565e-01 
9.239596e-01 
9.483282e-01 
9.730400e-01 
9.980743e-01 
1.023412e+00 
1.049035e+00 
1.074927e+00 
1.101072e+00 
1.127457e+00 
1.154067e+00 
1.180890e+00 
1.207915e+00 
1.235130e+00 
1.262526e+00 
8.475668e-01 
8.241633e-01 
8.012006e-01 
7.787052e-01 
7.567094e-01 
7.352482e-01 
7.143597e-01 
6.940857e-01 
6.744700e-01 
6.555593e-01 
6.374034e-01 
6.200552e-01 
6.035706e-01 
5.880085e-01 
5.734303e-01 
5.598993e-01 
5.474804e-01 
5.362385e-01 
5.262379e-01 
5.175400e-01 
5.102020e-01 
5.042738e-01 
4.997933e-01 
4.967748e-01 
4.951270e-01 
4.963362e-01 
4.994761e-01 
5.042530e-01 
5.105533e-01 
5.182986e-01 
5.274185e-01 
5.378443e-01 
5.495056e-01 
5.623328e-01 
5.762590e-01 
5.912190e-01 
6.071494e-01 
6.239893e-01 
6.416806e-01 
6.601678e-01 
6.793988e-01 
6.993239e-01 
7.198972e-01 
7.410758e-01 
7.628196e-01 
7.850915e-01 
8.078566e-01 
8.310829e-01 
8.547403e-01 
8.788011e-01 
9.032395e-01 
9.280316e-01 
9.531554e-01 
9.785901e-01 
1.004317e+00 
1.030318e+00 
1.056577e+00 
1.083079e+00 
1.109809e+00 
1.136755e+00 
1.163904e+00 
1.191245e+00 
1.218767e+00 
1.246460e+00 
8.261869e-01 
8.023072e-01 
7.788557e-01 
7.558597e-01 
7.333520e-01 
7.113685e-01 
6.899484e-01 
6.691346e-01 
6.489730e-01 
6.295123e-01 
6.108048e-01 
5.929064e-01 
5.758768e-01 
5.597791e-01 
5.446795e-01 
5.306472e-01 
5.177530e-01 
5.060687e-01 
4.956656e-01 
4.866127e-01 
4.789741e-01 
4.728061e-01 
4.681520e-01 
4.650296e-01 
4.633558e-01 
4.646729e-01 
4.679718e-01 
4.729675e-01 
4.795455e-01 
4.876235e-01 
4.971250e-01 
5.079746e-01 
5.200949e-01 
5.334098e-01 
5.478462e-01 
5.633331e-01 
5.798019e-01 
5.971871e-01 
6.154267e-01 
6.344621e-01 
6.542382e-01 
6.747033e-01 
6.958093e-01 
7.175116e-01 
7.397692e-01 
7.625437e-01 
7.857998e-01 
8.095049e-01 
8.336284e-01 
8.581427e-01 
8.830219e-01 
9.082420e-01 
9.337812e-01 
9.596191e-01 
9.857370e-01 
1.012117e+00 
1.038744e+00 
1.065603e+00 
1.092678e+00 
1.119959e+00 
1.147432e+00 
1.175087e+00 
1.202914e+00 
1.230902e+00 
8.053468e-01 
7.809828e-01 
7.570325e-01 
7.335242e-01 
7.104912e-01 
6.879701e-01 
6.660009e-01 
6.446278e-01 
6.238983e-01 
6.038632e-01 
5.845776e-01 
5.661003e-01 
5.484947e-01 
5.318285e-01 
5.161732e-01 
5.016041e-01 
4.881990e-01 
4.760372e-01 
4.651984e-01 
4.557598e-01 
4.477940e-01 
4.413648e-01 
4.365218e-01 
4.332868e-01 
4.315857e-01 
4.330126e-01 
4.364805e-01 
4.417120e-01 
4.485910e-01 
4.570294e-01 
4.669438e-01 
4.782506e-01 
4.908645e-01 
5.047019e-01 
5.196825e-01 
5.357291e-01 
5.527674e-01 
5.707272e-01 
5.895422e-01 
6.091504e-01 
6.294940e-01 
6.505190e-01 
6.721754e-01 
6.944172e-01 
7.172021e-01 
7.404911e-01 
7.642482e-01 
7.884403e-01 
8.130371e-01 
8.380106e-01 
8.633352e-01 
8.889871e-01 
9.149446e-01 
9.411877e-01 
9.676978e-01 
9.944578e-01 
1.021452e+00 
1.048666e+00 
1.076085e+00 
1.103698e+00 
1.131493e+00 
1.159460e+00 
1.187587e+00 
1.215867e+00 
7.850827e-01 
7.602271e-01 
7.357687e-01 
7.117370e-01 
6.881658e-01 
6.650921e-01 
6.425566e-01 
6.206045e-01 
5.992849e-01 
5.786508e-01 
5.587594e-01 
5.396729e-01 
5.214586e-01 
5.041886e-01 
4.879404e-01 
4.727957e-01 
4.588403e-01 
4.461620e-01 
4.348499e-01 
4.249911e-01 
4.166679e-01 
4.099532e-01 
4.049038e-01 
4.015467e-01 
3.998167e-01 
4.013556e-01 
4.050040e-01 
4.104910e-01 
4.176972e-01 
4.265278e-01 
4.368904e-01 
4.486918e-01 
4.618377e-01 
4.762356e-01 
4.917975e-01 
5.084391e-01 
5.260801e-01 
5.446452e-01 
5.640637e-01 
5.842701e-01 
6.052038e-01 
6.268088e-01 
6.490332e-01 
6.718297e-01 
6.951550e-01 
7.189694e-01 
7.432367e-01 
7.679237e-01 
7.930000e-01 
8.184378e-01 
8.442116e-01 
8.702979e-01 
8.966753e-01 
9.233241e-01 
9.502261e-01 
9.773647e-01 
1.004724e+00 
1.032291e+00 
1.060052e+00 
1.087994e+00 
1.116107e+00 
1.144381e+00 
1.172806e+00 
1.201373e+00 
7.654347e-01 
7.400812e-01 
7.151066e-01 
6.905415e-01 
6.664200e-01 
6.427795e-01 
6.196613e-01 
5.971111e-01 
5.751793e-01 
5.539208e-01 
5.333954e-01 
5.136683e-01 
4.948106e-01 
4.768993e-01 
4.600178e-01 
4.442553e-01 
4.297059e-01 
4.164674e-01 
4.046397e-01 
3.943214e-01 
3.856063e-01 
3.785780e-01 
3.733022e-01 
3.698117e-01 
3.680511e-01 
3.697034e-01 
3.735457e-01 
3.793105e-01 
3.868740e-01 
3.961325e-01 
4.069830e-01 
4.193209e-01 
4.330411e-01 
4.480414e-01 
4.642250e-01 
4.814997e-01 
4.997787e-01 
5.189812e-01 
5.390323e-01 
5.598628e-01 
5.814095e-01 
6.036143e-01 
6.264238e-01 
6.497895e-01 
6.736675e-01 
6.980176e-01 
7.228036e-01 
7.479922e-01 
7.735532e-01 
7.994589e-01 
8.256842e-01 
8.522061e-01 
8.790035e-01 
9.060572e-01 
9.333496e-01 
9.608645e-01 
9.885869e-01 
1.016503e+00 
1.044601e+00 
1.072869e+00 
1.101296e+00 
1.129872e+00 
1.158589e+00 
1.187438e+00 
7.464573e-01 
7.206009e-01 
6.951042e-01 
6.699977e-01 
6.453155e-01 
6.210949e-01 
5.973776e-01 
5.742100e-01 
5.516436e-01 
5.297349e-01 
5.085460e-01 
4.881450e-01 
4.686069e-01 
4.500135e-01 
4.324545e-01 
4.160272e-01 
4.008350e-01 
3.869870e-01 
3.745953e-01 
3.637720e-01 
3.546247e-01 
3.472499e-01 
3.417240e-01 
3.380870e-01 
3.362931e-01 
3.380603e-01 
3.421117e-01 
3.481801e-01 
3.561350e-01 
3.658620e-01 
3.772449e-01 
3.901658e-01 
4.045071e-01 
4.201556e-01 
4.370043e-01 
4.549526e-01 
4.739067e-01 
4.937800e-01 
5.144933e-01 
5.359740e-01 
5.581562e-01 
5.809800e-01 
6.043909e-01 
6.283394e-01 
6.527812e-01 
6.776760e-01 
7.029874e-01 
7.286825e-01 
7.547313e-01 
7.811067e-01 
8.077840e-01 
8.347407e-01 
8.619564e-01 
8.894126e-01 
9.170921e-01 
9.449795e-01 
9.730603e-01 
1.001322e+00 
1.029751e+00 
1.058339e+00 
1.087074e+00 
1.115947e+00 
1.144951e+00 
1.174076e+00 
7.281999e-01 
7.018369e-01 
6.758120e-01 
6.501561e-01 
6.249027e-01 
6.000892e-01 
5.757571e-01 
5.519532e-01 
5.287299e-01 
5.061449e-01 
4.842624e-01 
4.631533e-01 
4.428961e-01 
4.235777e-01 
4.052944e-01 
3.881515e-01 
3.722630e-01 
3.577503e-01 
3.447398e-01 
3.333595e-01 
3.237335e-01 
3.159742e-01 
3.101713e-01 
3.063736e-01 
3.045415e-01 
3.064140e-01 
3.106902e-01 
3.170911e-01 
3.254771e-01 
3.357197e-01 
3.476867e-01 
3.612439e-01 
3.762594e-01 
3.926070e-01 
4.101685e-01 
4.288342e-01 
4.485029e-01 
4.690823e-01 
4.904887e-01 
5.126463e-01 
5.354870e-01 
5.589491e-01 
5.829773e-01 
6.075216e-01 
6.325373e-01 
6.579844e-01 
6.838268e-01 
7.100320e-01 
7.365705e-01 
7.634160e-01 
7.905443e-01 
8.179338e-01 
8.455649e-01 
8.734196e-01 
9.014816e-01 
9.297363e-01 
9.581700e-01 
9.867705e-01 
1.015526e+00 
1.044427e+00 
1.073464e+00 
1.102628e+00 
1.131911e+00 
1.161305e+00 
7.106656e-01 
6.837910e-01 
6.572359e-01 
6.310265e-01 
6.051955e-01 
5.797797e-01 
5.548204e-01 
5.303642e-01 
5.064637e-01 
4.831778e-01 
4.605722e-01 
4.387204e-01 
4.177045e-01 
3.976166e-01 
3.785593e-01 
3.606466e-01 
3.440035e-01 
3.287653e-01 
3.150750e-01 
3.030792e-01 
2.929219e-01 
2.847350e-01 
2.786247e-01 
2.746506e-01 
2.727811e-01 
2.747720e-01 
2.793002e-01 
2.860729e-01 
2.949398e-01 
3.057553e-01 
3.183673e-01 
3.326223e-01 
3.483710e-01 
3.654725e-01 
3.837967e-01 
4.032241e-01 
4.236462e-01 
4.449651e-01 
4.670929e-01 
4.899510e-01 
5.134693e-01 
5.375852e-01 
5.622425e-01 
5.873913e-01 
6.129871e-01 
6.389903e-01 
6.653653e-01 
6.920804e-01 
7.191070e-01 
7.464195e-01 
7.739949e-01 
8.018122e-01 
8.298528e-01 
8.580997e-01 
8.865373e-01 
9.151519e-01 
9.439306e-01 
9.728619e-01 
1.001935e+00 
1.031141e+00 
1.060470e+00 
1.089915e+00 
1.119468e+00 
1.149123e+00 
6.939188e-01 
6.665394e-01 
6.394547e-01 
6.126901e-01 
5.862773e-01 
5.602524e-01 
5.346558e-01 
5.095335e-01 
4.849378e-01 
4.609280e-01 
4.375711e-01 
4.149424e-01 
3.931276e-01 
3.722232e-01 
3.523386e-01 
3.335963e-01 
3.161332e-01 
3.000998e-01 
2.856580e-01 
2.729770e-01 
2.622249e-01 
2.535579e-01 
2.471031e-01 
2.429337e-01 
2.410241e-01 
2.431352e-01 
2.479429e-01 
2.551306e-01 
2.645347e-01 
2.759881e-01 
2.893141e-01 
3.043357e-01 
3.208836e-01 
3.388006e-01 
3.579431e-01 
3.781816e-01 
3.994001e-01 
4.214952e-01 
4.443755e-01 
4.679600e-01 
4.921770e-01 
5.169634e-01 
5.422628e-01 
5.680256e-01 
5.942081e-01 
6.207714e-01 
6.476810e-01 
6.749060e-01 
7.024192e-01 
7.301959e-01 
7.582143e-01 
7.864545e-01 
8.148989e-01 
8.435315e-01 
8.723378e-01 
9.013049e-01 
9.304209e-01 
9.596751e-01 
9.890577e-01 
1.018560e+00 
1.048173e+00 
1.077891e+00 
1.107706e+00 
1.137611e+00 
6.780201e-01 
6.501410e-01 
6.225302e-01 
5.952120e-01 
5.682169e-01 
5.415793e-01 
5.153385e-01 
4.895395e-01 
4.642334e-01 
4.394793e-01 
4.153443e-01 
3.919052e-01 
3.692501e-01 
3.474801e-01 
3.267107e-01 
3.070736e-01 
2.887177e-01 
2.718100e-01 
2.565340e-01 
2.430856e-01 
2.316631e-01 
2.224531e-01 
2.156093e-01 
2.112226e-01 
2.092699e-01 
2.115034e-01 
2.166238e-01 
2.242779e-01 
2.342869e-01 
2.464553e-01 
2.605754e-01 
2.764421e-01 
2.938626e-01 
3.126612e-01 
3.326804e-01 
3.537801e-01 
3.758373e-01 
3.987438e-01 
4.224049e-01 
4.467381e-01 
4.716709e-01 
4.971401e-01 
5.230900e-01 
5.494720e-01 
5.762434e-01 
6.033666e-01 
6.308084e-01 
6.585395e-01 
6.865338e-01 
7.147682e-01 
7.432221e-01 
7.718769e-01 
8.007163e-01 
8.297254e-01 
8.588908e-01 
8.882006e-01 
9.176438e-01 
9.472107e-01 
9.768923e-01 
1.006681e+00 
1.036568e+00 
1.066548e+00 
1.096615e+00 
1.126762e+00 
6.630243e-01 
6.346548e-01 
6.065253e-01 
5.786591e-01 
5.510849e-01 
5.238353e-01 
4.969478e-01 
4.704654e-01 
4.444377e-01 
4.189223e-01 
3.939857e-01 
3.697050e-01 
3.461697e-01 
3.234841e-01 
3.017695e-01 
2.811665e-01 
2.618367e-01 
2.439645e-01 
2.277581e-01 
2.134454e-01 
2.012617e-01 
1.914327e-01 
1.841460e-01 
1.795162e-01 
1.775168e-01 
1.798753e-01 
1.853486e-01 
1.935314e-01 
2.042276e-01 
2.172033e-01 
2.322114e-01 
2.490127e-01 
2.673874e-01 
2.871396e-01 
3.080969e-01 
3.301093e-01 
3.530471e-01 
3.767981e-01 
4.012657e-01 
4.263665e-01 
4.520284e-01 
4.781890e-01 
5.047939e-01 
5.317961e-01 
5.591546e-01 
5.868336e-01 
6.148017e-01 
6.430314e-01 
6.714982e-01 
7.001806e-01 
7.290596e-01 
7.581181e-01 
7.873411e-01 
8.167149e-01 
8.462274e-01 
8.758678e-01 
9.056261e-01 
9.354936e-01 
9.654622e-01 
9.955246e-01 
1.025674e+00 
1.055905e+00 
1.086212e+00 
1.116589e+00 
6.489901e-01 
6.201434e-01 
5.915067e-01 
5.631025e-01 
5.349571e-01 
5.071009e-01 
4.795689e-01 
4.524015e-01 
4.256459e-01 
3.993571e-01 
3.735999e-01 
3.484501e-01 
3.239973e-01 
3.003476e-01 
2.776263e-01 
2.559818e-01 
2.355884e-01 
2.166496e-01 
1.994012e-01 
1.841089e-01 
1.710545e-01 
1.605135e-01 
1.527178e-01 
1.478140e-01 
1.457637e-01 
1.482500e-01 
1.541249e-01 
1.629129e-01 
1.743975e-01 
1.882920e-01 
2.042985e-01 
2.221366e-01 
2.415560e-01 
2.623388e-01 
2.842979e-01 
3.072741e-01 
3.311323e-01 
3.557579e-01 
3.810535e-01 
4.069363e-01 
4.333357e-01 
4.601911e-01 
4.874504e-01 
5.150690e-01 
5.430082e-01 
5.712346e-01 
5.997190e-01 
6.284358e-01 
6.573628e-01 
6.864802e-01 
7.157707e-01 
7.452189e-01 
7.748113e-01 
8.045356e-01 
8.343810e-01 
8.643377e-01 
8.943971e-01 
9.245512e-01 
9.547931e-01 
9.851162e-01 
1.015515e+00 
1.045983e+00 
1.076518e+00 
1.107113e+00 
6.359732e-01 
6.066664e-01 
5.775387e-01 
5.486116e-01 
5.199086e-01 
4.914572e-01 
4.632893e-01 
4.354421e-01 
4.079592e-01 
3.808921e-01 
3.543021e-01 
3.282624e-01 
3.028607e-01 
2.782024e-01 
2.544150e-01 