# vtk DataFile Version 2.0 
Quadtree Mesh 
ASCII 
DATASET UNSTRUCTURED_GRID 
POINTS 4096 double 
-1.000000e+00 -1.000000e+00 0.000000e+00
-9.682540e-01 -1.000000e+00 0.000000e+00
-9.365079e-01 -1.000000e+00 0.000000e+00
-9.047619e-01 -1.000000e+00 0.000000e+00
-8.730159e-01 -1.000000e+00 0.000000e+00
-8.412698e-01 -1.000000e+00 0.000000e+00
-8.095238e-01 -1.000000e+00 0.000000e+00
-7.777778e-01 -1.000000e+00 0.000000e+00
-7.460317e-01 -1.000000e+00 0.000000e+00
-7.142857e-01 -1.000000e+00 0.000000e+00
-6.825397e-01 -1.000000e+00 0.000000e+00
-6.507937e-01 -1.000000e+00 0.000000e+00
-6.190476e-01 -1.000000e+00 0.000000e+00
-5.873016e-01 -1.000000e+00 0.000000e+00
-5.555556e-01 -1.000000e+00 0.000000e+00
-5.238095e-01 -1.000000e+00 0.000000e+00
-4.920635e-01 -1.000000e+00 0.000000e+00
-4.603175e-01 -1.000000e+00 0.000000e+00
-4.285714e-01 -1.000000e+00 0.000000e+00
-3.968254e-01 -1.000000e+00 0.000000e+00
-3.650794e-01 -1.000000e+00 0.000000e+00
-3.333333e-01 -1.000000e+00 0.000000e+00
-3.015873e-01 -1.000000e+00 0.000000e+00
-2.698413e-01 -1.000000e+00 0.000000e+00
-2.380952e-01 -1.000000e+00 0.000000e+00
-2.063492e-01 -1.000000e+00 0.000000e+00
-1.746032e-01 -1.000000e+00 0.000000e+00
-1.428571e-01 -1.000000e+00 0.000000e+00
-1.111111e-01 -1.000000e+00 0.000000e+00
-7.936508e-02 -1.000000e+00 0.000000e+00
-4.761905e-02 -1.000000e+00 0.000000e+00
-1.587302e-02 -1.000000e+00 0.000000e+00
1.587302e-02 -1.000000e+00 0.000000e+00
4.761905e-02 -1.000000e+00 0.000000e+00
7.936508e-02 -1.000000e+00 0.000000e+00
1.111111e-01 -1.000000e+00 0.000000e+00
1.428571e-01 -1.000000e+00 0.000000e+00
1.746032e-01 -1.000000e+00 0.000000e+00
2.063492e-01 -1.000000e+00 0.000000e+00
2.380952e-01 -1.000000e+00 0.000000e+00
2.698413e-01 -1.000000e+00 0.000000e+00
3.015873e-01 -1.000000e+00 0.000000e+00
3.333333e-01 -1.000000e+00 0.000000e+00
3.650794e-01 -1.000000e+00 0.000000e+00
3.968254e-01 -1.000000e+00 0.000000e+00
4.285714e-01 -1.000000e+00 0.000000e+00
4.603175e-01 -1.000000e+00 0.000000e+00
4.920635e-01 -1.000000e+00 0.000000e+00
5.238095e-01 -1.000000e+00 0.000000e+00
5.555556e-01 -1.000000e+00 0.000000e+00
5.873016e-01 -1.000000e+00 0.000000e+00
6.190476e-01 -1.000000e+00 0.000000e+00
6.507937e-01 -1.000000e+00 0.000000e+00
6.825397e-01 -1.000000e+00 0.000000e+00
7.142857e-01 -1.000000e+00 0.000000e+00
7.460317e-01 -1.000000e+00 0.000000e+00
7.777778e-01 -1.000000e+00 0.000000e+00
8.095238e-01 -1.000000e+00 0.000000e+00
8.412698e-01 -1.000000e+00 0.000000e+00
8.730159e-01 -1.000000e+00 0.000000e+00
9.047619e-01 -1.000000e+00 0.000000e+00
9.365079e-01 -1.000000e+00 0.000000e+00
9.682540e-01 -1.000000e+00 0.000000e+00
1.000000e+00 -1.000000e+00 0.000000e+00
-1.000000e+00 -9.682540e-01 0.000000e+00
-9.682540e-01 -9.682540e-01 0.000000e+00
-9.365079e-01 -9.682540e-01 0.000000e+00
-9.047619e-01 -9.682540e-01 0.000000e+00
-8.730159e-01 -9.682540e-01 0.000000e+00
-8.412698e-01 -9.682540e-01 0.000000e+00
-8.095238e-01 -9.682540e-01 0.000000e+00
-7.777778e-01 -9.682540e-01 0.000000e+00
-7.460317e-01 -9.682540e-01 0.000000e+00
-7.142857e-01 -9.682540e-01 0.000000e+00
-6.825397e-01 -9.682540e-01 0.000000e+00
-6.507937e-01 -9.682540e-01 0.000000e+00
-6.190476e-01 -9.682540e-01 0.000000e+00
-5.873016e-01 -9.682540e-01 0.000000e+00
-5.555556e-01 -9.682540e-01 0.000000e+00
-5.238095e-01 -9.682540e-01 0.000000e+00
-4.920635e-01 -9.682540e-01 0.000000e+00
-4.603175e-01 -9.682540e-01 0.000000e+00
-4.285714e-01 -9.682540e-01 0.000000e+00
-3.968254e-01 -9.682540e-01 0.000000e+00
-3.650794e-01 -9.682540e-01 0.000000e+00
-3.333333e-01 -9.682540e-01 0.000000e+00
-3.015873e-01 -9.682540e-01 0.000000e+00
-2.698413e-01 -9.682540e-01 0.000000e+00
-2.380952e-01 -9.682540e-01 0.000000e+00
-2.063492e-01 -9.682540e-01 0.000000e+00
-1.746032e-01 -9.682540e-01 0.000000e+00
-1.428571e-01 -9.682540e-01 0.000000e+00
-1.111111e-01 -9.682540e-01 0.000000e+00
-7.936508e-02 -9.682540e-01 0.000000e+00
-4.761905e-02 -9.682540e-01 0.000000e+00
-1.587302e-02 -9.682540e-01 0.000000e+00
1.587302e-02 -9.682540e-01 0.000000e+00
4.761905e-02 -9.682540e-01 0.000000e+00
7.936508e-02 -9.682540e-01 0.000000e+00
1.111111e-01 -9.682540e-01 0.000000e+00
1.428571e-01 -9.682540e-01 0.000000e+00
1.746032e-01 -9.682540e-01 0.000000e+00
2.063492e-01 -9.682540e-01 0.000000e+00
2.380952e-01 -9.682540e-01 0.000000e+00
2.698413e-01 -9.682540e-01 0.000000e+00
3.015873e-01 -9.682540e-01 0.000000e+00
3.333333e-01 -9.682540e-01 0.000000e+00
3.650794e-01 -9.682540e-01 0.000000e+00
3.968254e-01 -9.682540e-01 0.000000e+00
4.285714e-01 -9.682540e-01 0.000000e+00
4.603175e-01 -9.682540e-01 0.000000e+00
4.920635e-01 -9.682540e-01 0.000000e+00
5.238095e-01 -9.682540e-01 0.000000e+00
5.555556e-01 -9.682540e-01 0.000000e+00
5.873016e-01 -9.682540e-01 0.000000e+00
6.190476e-01 -9.682540e-01 0.000000e+00
6.507937e-01 -9.682540e-01 0.000000e+00
6.825397e-01 -9.682540e-01 0.000000e+00
7.142857e-01 -9.682540e-01 0.000000e+00
7.460317e-01 -9.682540e-01 0.000000e+00
7.777778e-01 -9.682540e-01 0.000000e+00
8.095238e-01 -9.682540e-01 0.000000e+00
8.412698e-01 -9.682540e-01 0.000000e+00
8.730159e-01 -9.682540e-01 0.000000e+00
9.047619e-01 -9.682540e-01 0.000000e+00
9.365079e-01 -9.682540e-01 0.000000e+00
9.682540e-01 -9.682540e-01 0.000000e+00
1.000000e+00 -9.682540e-01 0.000000e+00
-1.000000e+00 -9.365079e-01 0.000000e+00
-9.682540e-01 -9.365079e-01 0.000000e+00
-9.365079e-01 -9.365079e-01 0.000000e+00
-9.047619e-01 -9.365079e-01 0.000000e+00
-8.730159e-01 -9.365079e-01 0.000000e+00
-8.412698e-01 -9.365079e-01 0.000000e+00
-8.095238e-01 -9.365079e-01 0.000000e+00
-7.777778e-01 -9.365079e-01 0.000000e+00
-7.460317e-01 -9.365079e-01 0.000000e+00
-7.142857e-01 -9.365079e-01 0.000000e+00
-6.825397e-01 -9.365079e-01 0.000000e+00
-6.507937e-01 -9.365079e-01 0.000000e+00
-6.190476e-01 -9.365079e-01 0.000000e+00
-5.873016e-01 -9.365079e-01 0.000000e+00
-5.555556e-01 -9.365079e-01 0.000000e+00
-5.238095e-01 -9.365079e-01 0.000000e+00
-4.920635e-01 -9.365079e-01 0.000000e+00
-4.603175e-01 -9.365079e-01 0.000000e+00
-4.285714e-01 -9.365079e-01 0.000000e+00
-3.968254e-01 -9.365079e-01 0.000000e+00
-3.650794e-01 -9.365079e-01 0.000000e+00
-3.333333e-01 -9.365079e-01 0.000000e+00
-3.015873e-01 -9.365079e-01 0.000000e+00
-2.698413e-01 -9.365079e-01 0.000000e+00
-2.380952e-01 -9.365079e-01 0.000000e+00
-2.063492e-01 -9.365079e-01 0.000000e+00
-1.746032e-01 -9.365079e-01 0.000000e+00
-1.428571e-01 -9.365079e-01 0.000000e+00
-1.111111e-01 -9.365079e-01 0.000000e+00
-7.936508e-02 -9.365079e-01 0.000000e+00
-4.761905e-02 -9.365079e-01 0.000000e+00
-1.587302e-02 -9.365079e-01 0.000000e+00
1.587302e-02 -9.365079e-01 0.000000e+00
4.761905e-02 -9.365079e-01 0.000000e+00
7.936508e-02 -9.365079e-01 0.000000e+00
1.111111e-01 -9.365079e-01 0.000000e+00
1.428571e-01 -9.365079e-01 0.000000e+00
1.746032e-01 -9.365079e-01 0.000000e+00
2.063492e-01 -9.365079e-01 0.000000e+00
2.380952e-01 -9.365079e-01 0.000000e+00
2.698413e-01 -9.365079e-01 0.000000e+00
3.015873e-01 -9.365079e-01 0.000000e+00
3.333333e-01 -9.365079e-01 0.000000e+00
3.650794e-01 -9.365079e-01 0.000000e+00
3.968254e-01 -9.365079e-01 0.000000e+00
4.285714e-01 -9.365079e-01 0.000000e+00
4.603175e-01 -9.365079e-01 0.000000e+00
4.920635e-01 -9.365079e-01 0.000000e+00
5.238095e-01 -9.365079e-01 0.000000e+00
5.555556e-01 -9.365079e-01 0.000000e+00
5.873016e-01 -9.365079e-01 0.000000e+00
6.190476e-01 -9.365079e-01 0.000000e+00
6.507937e-01 -9.365079e-01 0.000000e+00
6.825397e-01 -9.365079e-01 0.000000e+00
7.142857e-01 -9.365079e-01 0.000000e+00
7.460317e-01 -9.365079e-01 0.000000e+00
7.777778e-01 -9.365079e-01 0.000000e+00
8.095238e-01 -9.365079e-01 0.000000e+00
8.412698e-01 -9.365079e-01 0.000000e+00
8.730159e-01 -9.365079e-01 0.000000e+00
9.047619e-01 -9.365079e-01 0.000000e+00
9.365079e-01 -9.365079e-01 0.000000e+00
9.682540e-01 -9.365079e-01 0.000000e+00
1.000000e+00 -9.365079e-01 0.000000e+00
-1.000000e+00 -9.047619e-01 0.000000e+00
-9.682540e-01 -9.047619e-01 0.000000e+00
-9.365079e-01 -9.047619e-01 0.000000e+00
-9.047619e-01 -9.047619e-01 0.000000e+00
-8.730159e-01 -9.047619e-01 0.000000e+00
-8.412698e-01 -9.047619e-01 0.000000e+00
-8.095238e-01 -9.047619e-01 0.000000e+00
-7.777778e-01 -9.047619e-01 0.000000e+00
-7.460317e-01 -9.047619e-01 0.000000e+00
-7.142857e-01 -9.047619e-01 0.000000e+00
-6.825397e-01 -9.047619e-01 0.000000e+00
-6.507937e-01 -9.047619e-01 0.000000e+00
-6.190476e-01 -9.047619e-01 0.000000e+00
-5.873016e-01 -9.047619e-01 0.000000e+00
-5.555556e-01 -9.047619e-01 0.000000e+00
-5.238095e-01 -9.047619e-01 0.000000e+00
-4.920635e-01 -9.047619e-01 0.000000e+00
-4.603175e-01 -9.047619e-01 0.000000e+00
-4.285714e-01 -9.047619e-01 0.000000e+00
-3.968254e-01 -9.047619e-01 0.000000e+00
-3.650794e-01 -9.047619e-01 0.000000e+00
-3.333333e-01 -9.047619e-01 0.000000e+00
-3.015873e-01 -9.047619e-01 0.000000e+00
-2.698413e-01 -9.047619e-01 0.000000e+00
-2.380952e-01 -9.047619e-01 0.000000e+00
-2.063492e-01 -9.047619e-01 0.000000e+00
-1.746032e-01 -9.047619e-01 0.000000e+00
-1.428571e-01 -9.047619e-01 0.000000e+00
-1.111111e-01 -9.047619e-01 0.000000e+00
-7.936508e-02 -9.047619e-01 0.000000e+00
-4.761905e-02 -9.047619e-01 0.000000e+00
-1.587302e-02 -9.047619e-01 0.000000e+00
1.587302e-02 -9.047619e-01 0.000000e+00
4.761905e-02 -9.047619e-01 0.000000e+00
7.936508e-02 -9.047619e-01 0.000000e+00
1.111111e-01 -9.047619e-01 0.000000e+00
1.428571e-01 -9.047619e-01 0.000000e+00
1.746032e-01 -9.047619e-01 0.000000e+00
2.063492e-01 -9.047619e-01 0.000000e+00
2.380952e-01 -9.047619e-01 0.000000e+00
2.698413e-01 -9.047619e-01 0.000000e+00
3.015873e-01 -9.047619e-01 0.000000e+00
3.333333e-01 -9.047619e-01 0.000000e+00
3.650794e-01 -9.047619e-01 0.000000e+00
3.968254e-01 -9.047619e-01 0.000000e+00
4.285714e-01 -9.047619e-01 0.000000e+00
4.603175e-01 -9.047619e-01 0.000000e+00
4.920635e-01 -9.047619e-01 0.000000e+00
5.238095e-01 -9.047619e-01 0.000000e+00
5.555556e-01 -9.047619e-01 0.000000e+00
5.873016e-01 -9.047619e-01 0.000000e+00
6.190476e-01 -9.047619e-01 0.000000e+00
[...]
POINT_DATA 4096 
SCALARS concentration double 1 
LOOKUP_TABLE default 
1.092698e+00 
1.067987e+00 
1.043506e+00 
1.019327e+00 
9.954784e-01 
9.719822e-01 
9.488597e-01 
9.261335e-01 
9.038278e-01 
8.819682e-01 
8.605818e-01 
8.396978e-01 
8.193468e-01 
7.995623e-01 
7.803808e-01 
7.618414e-01 
7.439844e-01 
7.268517e-01 
7.104870e-01 
6.949360e-01 
6.802461e-01 
6.664664e-01 
6.536470e-01 
6.418393e-01 
6.310949e-01 
6.214654e-01 
6.130013e-01 
6.057519e-01 
5.997640e-01 
5.950817e-01 
5.917473e-01 
5.898083e-01 
5.899941e-01 
5.923698e-01 
5.964464e-01 
6.020455e-01 
6.090610e-01 
6.174114e-01 
6.270252e-01 
6.378354e-01 
6.497773e-01 
6.627887e-01 
6.768090e-01 
6.917801e-01 
7.076459e-01 
7.243531e-01 
7.418508e-01 
7.600908e-01 
7.790271e-01 
7.986146e-01 
8.188122e-01 
8.395823e-01 
8.608899e-01 
8.827024e-01 
9.049890e-01 
9.277212e-01 
9.508721e-01 
9.744166e-01 
9.983315e-01 
1.022595e+00 
1.047186e+00 
1.072087e+00 
1.097279e+00 
1.122746e+00 
1.072926e+00 
1.047840e+00 
1.022972e+00 
9.983973e-01 
9.741437e-01 
9.502329e-01 
9.266865e-01 
9.035274e-01 
8.807801e-01 
8.584705e-01 
8.366266e-01 
8.152779e-01 
7.944564e-01 
7.741961e-01 
7.545347e-01 
7.355128e-01 
7.171728e-01 
6.995589e-01 
6.827174e-01 
6.666968e-01 
6.515476e-01 
6.373225e-01 
6.240759e-01 
6.118634e-01 
6.007413e-01 
5.907662e-01 
5.819939e-01 
5.744784e-01 
5.682716e-01 
5.634223e-01 
5.599766e-01 
5.579850e-01 
5.582622e-01 
5.607879e-01 
5.650643e-01 
5.709133e-01 
5.782256e-01 
5.869156e-01 
5.969066e-01 
6.081260e-01 
6.205040e-01 
6.339729e-01 
6.484676e-01 
6.639255e-01 
6.802868e-01 
6.974946e-01 
7.154952e-01 
7.342378e-01 
7.536738e-01 
7.737563e-01 
7.944432e-01 
8.156956e-01 
8.374778e-01 
8.597560e-01 
8.824992e-01 
9.056781e-01 
9.292655e-01 
9.532363e-01 
9.775669e-01 
1.002235e+00 
1.027221e+00 
1.052506e+00 
1.078072e+00 
1.103902e+00 
1.053647e+00 
1.028179e+00 
1.002921e+00 
9.779464e-01 
9.532828e-01 
9.289517e-01 
9.049746e-01 
8.813747e-01 
8.581766e-01 
8.354067e-01 
8.130933e-01 
7.912671e-01 
7.699604e-01 
7.492084e-01 
7.290495e-01 
7.095261e-01 
6.906825e-01 
6.725653e-01 
6.552233e-01 
6.387080e-01 
6.230735e-01 
6.083762e-01 
5.946750e-01 
5.820304e-01 
5.705040e-01 
5.601579e-01 
5.510536e-01 
5.432512e-01 
5.368079e-01 
5.317778e-01 
5.282118e-01 
5.261639e-01 
5.265347e-01 
5.292197e-01 
5.337097e-01 
5.398270e-01 
5.474589e-01 
5.565142e-01 
5.669100e-01 
5.785676e-01 
5.914107e-01 
6.053663e-01 
6.203637e-01 
6.363357e-01 
6.532183e-01 
6.709511e-01 
6.894772e-01 
7.087431e-01 
7.286977e-01 
7.492926e-01 
7.704845e-01 
7.922334e-01 
8.145026e-01 
8.372578e-01 
8.604672e-01 
8.841013e-01 
9.081327e-01 
9.325360e-01 
9.572876e-01 
9.823656e-01 
1.007750e+00 
1.033421e+00 
1.059363e+00 
1.085558e+00 
1.034880e+00 
1.009027e+00 
9.833775e-01 
9.580000e-01 
9.329224e-01 
9.081658e-01 
8.837520e-01 
8.597039e-01 
8.360464e-01 
8.128062e-01 
7.900121e-01 
7.676952e-01 
7.458889e-01 
7.246292e-01 
7.039554e-01 
6.839110e-01 
6.645424e-01 
6.458987e-01 
6.280313e-01 
6.109948e-01 
5.948470e-01 
5.796486e-01 
5.654631e-01 
5.523565e-01 
5.403964e-01 
5.296511e-01 
5.201887e-01 
5.120758e-01 
5.053762e-01 
5.001501e-01 
4.964539e-01 
4.943455e-01 
4.948152e-01 
4.976661e-01 
5.023844e-01 
5.087906e-01 
5.167671e-01 
5.262160e-01 
5.370471e-01 
5.491743e-01 
5.625144e-01 
5.769877e-01 
5.925181e-01 
6.090330e-01 
6.264641e-01 
6.447471e-01 
6.638220e-01 
6.836324e-01 
7.041246e-01 
7.252492e-01 
7.469614e-01 
7.692205e-01 
7.919887e-01 
8.152312e-01 
8.389157e-01 
8.630125e-01 
8.874942e-01 
9.123351e-01 
9.375119e-01 
9.630027e-01 
9.887876e-01 
1.014848e+00 
1.041166e+00 
1.067727e+00 
1.016648e+00 
9.904112e-01 
9.643680e-01 
9.385854e-01 
9.130905e-01 
8.879044e-01 
8.630484e-01 
8.385455e-01 
8.144207e-01 
7.907008e-01 
7.674151e-01 
7.445950e-01 
7.222748e-01 
7.004914e-01 
6.792850e-01 
6.587000e-01 
6.387846e-01 
6.195903e-01 
6.011713e-01 
5.835856e-01 
5.668946e-01 
5.511637e-01 
5.364617e-01 
5.228605e-01 
5.104343e-01 
4.992585e-01 
4.894087e-01 
4.809590e-01 
4.739808e-01 
4.685414e-01 
4.647036e-01 
4.625302e-01 
4.631027e-01 
4.661273e-01 
4.710908e-01 
4.778095e-01 
4.861590e-01 
4.960334e-01 
5.073337e-01 
5.199653e-01 
5.338371e-01 
5.488623e-01 
5.649580e-01 
5.820466e-01 
6.000547e-01 
6.189143e-01 
6.385619e-01 
6.589384e-01 
6.799877e-01 
7.016591e-01 
7.239068e-01 
7.466892e-01 
7.699678e-01 
7.937073e-01 
8.178751e-01 
8.424414e-01 
8.673786e-01 
8.926614e-01 
9.182665e-01 
9.441723e-01 
9.703591e-01 
9.968086e-01 
1.023504e+00 
1.050429e+00 
9.989782e-01 
9.723577e-01 
9.459203e-01 
9.197315e-01 
8.938172e-01 
8.681982e-01 
8.428956e-01 
8.179322e-01 
7.933330e-01 
7.691248e-01 
7.453372e-01 
7.220021e-01 
6.991543e-01 
6.768316e-01 
6.550748e-01 
6.339292e-01 
6.134447e-01 
5.936749e-01 
5.746770e-01 
5.565123e-01 
5.392462e-01 
5.229492e-01 
5.076956e-01 
4.935640e-01 
4.806359e-01 
4.689947e-01 
4.587245e-01 
4.499083e-01 
4.426261e-01 
4.369538e-01 
4.329617e-01 
4.307184e-01 
4.313955e-01 
4.346044e-01 
4.398326e-01 
4.468908e-01 
4.556458e-01 
4.659816e-01 
4.777892e-01 
4.909638e-01 
5.054054e-01 
5.210191e-01 
5.377153e-01 
5.554100e-01 
5.740252e-01 
5.934887e-01 
6.137337e-01 
6.346980e-01 
6.563237e-01 
6.785589e-01 
7.013570e-01 
7.246753e-01 
7.484750e-01 
7.727203e-01 
7.973786e-01 
8.224201e-01 
8.478173e-01 
8.735452e-01 
8.995808e-01 
9.259028e-01 
9.524918e-01 
9.793301e-01 
1.006401e+00 
1.033690e+00 
9.818996e-01 
9.548940e-01 
9.280624e-01 
9.014669e-01 
8.751321e-01 
8.490780e-01 
8.233254e-01 
7.978969e-01 
7.728172e-01 
7.481131e-01 
7.238142e-01 
6.999529e-01 
6.765643e-01 
6.536868e-01 
6.313622e-01 
6.096363e-01 
5.885598e-01 
5.681890e-01 
5.485836e-01 
5.298085e-01 
5.119335e-01 
4.950340e-01 
4.791908e-01 
4.644897e-01 
4.510201e-01 
4.388746e-01 
4.281471e-01 
4.189307e-01 
4.113159e-01 
4.053884e-01 
4.012275e-01 
3.989090e-01 
3.996935e-01 
4.031001e-01 
4.086164e-01 
4.160453e-01 
4.252429e-01 
4.360810e-01 
4.484383e-01 
4.621987e-01 
4.772519e-01 
4.934939e-01 
5.108275e-01 
5.291627e-01 
5.484162e-01 
5.685115e-01 
5.893786e-01 
6.109524e-01 
6.331735e-01 
6.559891e-01 
6.793514e-01 
7.032174e-01 
7.275478e-01 
7.523068e-01 
7.774617e-01 
8.029830e-01 
8.288436e-01 
8.550186e-01 
8.814855e-01 
9.082237e-01 
9.352143e-01 
9.624398e-01 
9.898844e-01 
1.017534e+00 
9.654258e-01 
9.380321e-01 
9.108077e-01 
8.838071e-01 
8.570525e-01 
8.305631e-01 
8.043590e-01 
7.784625e-01 
7.528979e-01 
7.276920e-01 
7.028742e-01 
6.784771e-01 
6.545361e-01 
6.310898e-01 
6.081806e-01 
5.858549e-01 
5.641642e-01 
5.431666e-01 
5.229247e-01 
5.035068e-01 
4.849874e-01 
4.674473e-01 
4.509739e-01 
4.356606e-01 
4.216062e-01 
4.089134e-01 
3.976873e-01 
3.880330e-01 
3.800530e-01 
3.738450e-01 
3.694991e-01 
3.670996e-01 
3.679973e-01 
3.716193e-01 
3.774515e-01 
3.852875e-01 
3.949704e-01 
4.063571e-01 
4.193118e-01 
4.337051e-01 
4.494151e-01 
4.663280e-01 
4.843384e-01 
5.033495e-01 
5.232729e-01 
5.440280e-01 
5.655413e-01 
5.877456e-01 
6.105801e-01 
6.339910e-01 
6.579302e-01 
6.823540e-01 
7.072231e-01 
7.325018e-01 
7.581578e-01 
7.841618e-01 
8.104872e-01 
8.371098e-01 
8.640076e-01 
8.911605e-01 
9.185503e-01 
9.461602e-01 
9.739750e-01 
1.001981e+00 
9.495199e-01 
9.217621e-01 
8.941547e-01 
8.667554e-01 
8.395862e-01 
8.126654e-01 
7.860127e-01 
7.596497e-01 
7.336003e-01 
7.078909e-01 
6.825508e-01 
6.576121e-01 
6.331103e-01 
6.090843e-01 
5.855767e-01 
5.626342e-01 
5.403094e-01 
5.186611e-01 
4.977550e-01 
4.776627e-01 
4.584632e-01 
4.402430e-01 
4.230965e-01 
4.071255e-01 
3.924387e-01 
3.791504e-01 
3.673787e-01 
3.572426e-01 
3.488592e-01 
3.423407e-01 
3.377902e-01 
3.353027e-01 
3.362976e-01 
3.401475e-01 
3.463248e-01 
3.546090e-01 
3.648257e-01 
3.768138e-01 
3.904199e-01 
4.054992e-01 
4.219164e-01 
4.395469e-01 
4.582766e-01 
4.780018e-01 
4.986286e-01 
5.200726e-01 
5.422569e-01 
5.651123e-01 
5.885772e-01 
6.125974e-01 
6.371243e-01 
6.621144e-01 
6.875284e-01 
7.133309e-01 
7.394903e-01 
7.659777e-01 
7.927673e-01 
8.198355e-01 
8.471612e-01 
8.747250e-01 
9.025094e-01 
9.304985e-01 
9.586776e-01 
9.870335e-01 
9.343728e-01 
9.062436e-01 
8.782536e-01 
8.504558e-01 
8.228711e-01 
7.955173e-01 
7.684134e-01 
7.415803e-01 
7.150411e-01 
6.888218e-01 
6.629511e-01 
6.374609e-01 
6.123861e-01 
5.877653e-01 
5.636411e-01 
5.400606e-01 
5.170764e-01 
4.947484e-01 
4.731444e-01 
4.523395e-01 
4.324173e-01 
4.134702e-01 
3.955999e-01 
3.789172e-01 
3.635419e-01 
3.496015e-01 
3.372287e-01 
3.265588e-01 
3.177265e-01 
3.108621e-01 
3.060846e-01 
3.035017e-01 
3.046063e-01 
3.087112e-01 
3.152732e-01 
3.240561e-01 
3.348646e-01 
3.475148e-01 
3.618328e-01 
3.776558e-01 
3.948337e-01 
4.132301e-01 
4.327216e-01 
4.531977e-01 
4.745594e-01 
4.967183e-01 
5.195946e-01 
5.431179e-01 
5.672263e-01 
5.918654e-01 
6.169865e-01 
6.425464e-01 
6.685062e-01 
6.948315e-01 
7.214910e-01 
7.484569e-01 
7.757043e-01 
8.032105e-01 
8.309551e-01 
8.589199e-01 
8.870881e-01 
9.154446e-01 
9.439757e-01 
9.726688e-01 
9.199364e-01 
8.914438e-01 
8.630769e-01 
8.348861e-01 
8.068911e-01 
7.791087e-01 
7.515568e-01 
7.242556e-01 
6.972274e-01 
6.704974e-01 
6.440936e-01 
6.180468e-01 
5.923915e-01 
5.671654e-01 
5.424108e-01 
5.181745e-01 
4.945095e-01 
4.714761e-01 
4.491435e-01 
4.275901e-01 
4.069040e-01 
3.871831e-01 
3.685369e-01 
3.510859e-01 
3.349619e-01 
3.203069e-01 
3.072705e-01 
2.960073e-01 
2.866734e-01 
2.794217e-01 
2.743909e-01 
2.717044e-01 
2.729199e-01 
2.773053e-01 
2.842971e-01 
2.936389e-01 
3.051076e-01 
3.184915e-01 
3.335918e-01 
3.502248e-01 
3.682243e-01 
3.874411e-01 
4.077425e-01 
4.290111e-01 
4.511431e-01 
4.740465e-01 
4.976395e-01 
5.218513e-01 
5.466200e-01 
5.718912e-01 
5.976168e-01 
6.237541e-01 
6.502653e-01 
6.771167e-01 
7.042783e-01 
7.317234e-01 
7.594280e-01 
7.873707e-01 
8.155321e-01 
8.438950e-01 
8.724437e-01 
9.011639e-01 
9.300429e-01 
9.590689e-01 
9.062352e-01 
8.773883e-01 
8.486530e-01 
8.200773e-01 
7.916794e-01 
7.634751e-01 
7.354813e-01 
7.077170e-01 
6.802036e-01 
6.529652e-01 
6.260285e-01 
5.994234e-01 
5.731829e-01 
5.473439e-01 
5.219476e-01 
4.970404e-01 
4.726752e-01 
4.489124e-01 
4.258220e-01 
4.034849e-01 
3.819929e-01 
3.614496e-01 
3.419720e-01 
3.236910e-01 
3.067513e-01 
2.913109e-01 
2.775388e-01 
2.656122e-01 
2.557140e-01 
2.480258e-01 
2.427105e-01 
2.399112e-01 
2.412365e-01 
2.459338e-01 
2.534102e-01 
2.633825e-01 
2.755916e-01 
2.897910e-01 
3.057519e-01 
3.232673e-01 
3.421528e-01 
3.622462e-01 
3.834053e-01 
4.055063e-01 
4.284411e-01 
4.521148e-01 
4.764450e-01 
5.013609e-01 
5.268011e-01 
5.527120e-01 
5.790464e-01 
6.057628e-01 
6.328247e-01 
6.601999e-01 
6.878597e-01 
7.157787e-01 
7.439344e-01 
7.723066e-01 
8.008772e-01 
8.296301e-01 
8.585508e-01 
8.876260e-01 
9.168441e-01 
9.461942e-01 
8.933002e-01 
8.641103e-01 
8.350173e-01 
8.060670e-01 
7.772762e-01 
7.486593e-01 
7.202322e-01 
6.920126e-01 
6.640206e-01 
6.362789e-01 
6.088128e-01 
5.816505e-01 
5.548234e-01 
5.283669e-01 
5.023208e-01 
4.767307e-01 
4.516486e-01 
4.271349e-01 
4.032597e-01 
3.801049e-01 
3.577654e-01 
3.363500e-01 
3.159828e-01 
2.968050e-01 
2.789754e-01 
2.626692e-01 
2.480773e-01 
2.354041e-01 
2.248662e-01 
2.166820e-01 
2.110449e-01 
2.081225e-01 
2.095554e-01 
2.146032e-01 
2.226313e-01 
2.333214e-01 
2.463666e-01 
2.614766e-01 
2.783871e-01 
2.968643e-01 
3.167048e-01 
3.377329e-01 
3.597978e-01 
3.827698e-01 
4.065373e-01 
4.310041e-01 
4.560883e-01 
4.817201e-01 
5.078391e-01 
5.343932e-01 
5.613367e-01 
5.886300e-01 
6.162383e-01 
6.441311e-01 
6.722815e-01 
7.006658e-01 
7.292630e-01 
7.580544e-01 
7.870235e-01 
8.161554e-01 
8.454367e-01 
8.748555e-01 
9.044011e-01 
9.340638e-01 
8.811627e-01 
8.516438e-01 
8.222061e-01 
7.928939e-01 
7.637226e-01 
7.347053e-01 
7.058565e-01 
6.771925e-01 
6.487319e-01 
6.204956e-01 
5.925071e-01 
5.647924e-01 
5.373812e-01 
5.103067e-01 
4.836069e-01 
4.573258e-01 
4.315144e-01 
4.062320e-01 
3.815480e-01 
3.575444e-01 
3.343175e-01 
3.119800e-01 
2.906628e-01 
2.705171e-01 
2.517153e-01 
2.344515e-01 
2.189410e-01 
2.054216e-01 
1.941527e-01 
1.854003e-01 
1.793958e-01 
1.763386e-01 
1.778760e-01 
1.833216e-01 
1.919855e-01 
2.035012e-01 
2.174978e-01 
2.336293e-01 
2.515897e-01 
2.711156e-01 
2.919838e-01 
3.140056e-01 
3.370227e-01 
3.609011e-01 
3.855273e-01 
4.108058e-01 
4.366563e-01 
4.630108e-01 
4.898110e-01 
5.170068e-01 
5.445552e-01 
5.724186e-01 
6.005646e-01 
6.289649e-01 
6.575947e-01 
6.864321e-01 
7.154580e-01 
7.446555e-01 
7.740095e-01 
8.035066e-01 
8.331348e-01 
8.628835e-01 
8.927430e-01 
9.227047e-01 
8.698615e-01 
8.400270e-01 
8.102592e-01 
7.806000e-01 
7.510632e-01 
7.216605e-01 
6.924046e-01 
6.633104e-01 
6.343946e-01 
6.056759e-01 
5.771758e-01 
5.489180e-01 
5.209296e-01 
4.932415e-01 
4.658894e-01 
4.389150e-01 
4.123671e-01 
3.863032e-01 
3.607912e-01 
3.359115e-01 
3.117602e-01 
2.884522e-01 
2.661237e-01 
2.449346e-01 
2.250706e-01 
2.067446e-01 
1.901995e-01 
1.757138e-01 
1.636025e-01 
1.541929e-01 
1.477654e-01 
1.445600e-01 
1.461978e-01 
1.521001e-01 
1.615066e-01 
1.739829e-01 
1.890705e-01 
2.063530e-01 
2.254756e-01 
2.461434e-01 
2.681135e-01 
2.911866e-01 
3.151987e-01 
3.400138e-01 
3.655193e-01 
3.916222e-01 
4.182450e-01 
4.453227e-01 
4.728003e-01 
5.006309e-01 
5.287742e-01 
5.571959e-01 
5.858663e-01 
6.147595e-01 
6.438532e-01 
6.731279e-01 
7.025662e-01 
7.321533e-01 
7.618757e-01 
7.917215e-01 
8.216804e-01 
8.517428e-01 
8.819004e-01 
9.121456e-01 
8.594289e-01 
8.292852e-01 
7.992026e-01 
7.692136e-01 
7.393290e-01 
7.095586e-01 
6.799136e-01 
6.504069e-01 
6.210531e-01 
5.918689e-01 
5.628729e-01 
5.340866e-01 
5.055340e-01 
4.772433e-01 
4.492472e-01 
4.215843e-01 
3.943006e-01 
3.674504e-01 
3.410984e-01 
3.153222e-01 
2.902158e-01 
2.658936e-01 
2.424945e-01 
2.201850e-01 
1.991619e-01 
1.796562e-01 
1.619411e-01 
1.463449e-01 
1.332539e-01 
1.230760e-01 
1.161559e-01 
1.127876e-01 
1.145198e-01 
1.209530e-01 
1.312402e-01 
1.448494e-01 
1.611980e-01 
1.797811e-01 
2.001888e-01 
2.220947e-01 
2.452394e-01 
2.694160e-01 
2.944586e-01 
3.202328e-01 
3.466298e-01 
3.735612e-01 
4.009540e-01 
4.287478e-01 
4.568917e-01 
4.853430e-01 
5.140653e-01 
5.430278e-01 
5.722040e-01 
6.015710e-01 
6.311091e-01 
6.608013e-01 
6.906324e-01 
7.205895e-01 
7.506610e-01 
7.808367e-01 
8.111076e-01 
8.414656e-01 
8.719036e-01 
9.024152e-01 
8.497533e-01 
8.193456e-01 
7.889753e-01 
7.586821e-01 
7.284754e-01 
6.983636e-01 
6.683560e-01 
6.384635e-01 
6.086985e-01 
5.790751e-01 
5.496095e-01 
5.203200e-01 
4.912280e-01 
4.623581e-01 
4.337394e-01 
4.054067e-01 
3.774015e-01 
3.497737e-01 
3.225832e-01 
2.959027e-01 
2.698215e-01 
2.444502e-01 
2.199267e-01 
1.964208e-01 
1.741375e-01 
1.533244e-01 
1.342861e-01 
1.174074e-01 
1.031641e-01 
9.207519e-02 
8.457302e-02 
8.102496e-02 
8.283772e-02 
8.989470e-02 
1.012439e-01 
1.162091e-01 
1.340267e-01 
1.540817e-01 
1.759064e-01 
1.991467e-01 
2.235326e-01 
2.488555e-01 
2.749529e-01 
3.016967e-01 
3.289855e-01 
3.567378e-01 
3.848873e-01 
4.133794e-01 
4.421691e-01 
4.712185e-01 
5.004960e-01 
5.299746e-01 
5.596317e-01 
5.894476e-01 
6.194055e-01 
6.494908e-01 
6.796911e-01 
7.099952e-01 
7.403935e-01 
7.708775e-01 
8.014396e-01 
8.320733e-01 
8.627726e-01 
8.935320e-01 
8.411162e-01 
8.104449e-01 
7.798024e-01 
7.492217e-01 
7.187109e-01 
6.882765e-01 
6.579261e-01 
6.276685e-01 
5.975137e-01 
5.674733e-01 
5.375606e-01 
5.077910e-01 
4.781824e-01 
4.487559e-01 
4.195366e-01 
3.905545e-01 
3.618457e-01 
3.334540e-01 
3.054326e-01 
2.778473e-01 
2.507802e-01 
2.243352e-01 
1.986438e-01 
1.738717e-01 
1.502243e-01 
1.279587e-01 
1.074100e-01 
8.902840e-02 
7.340496e-02 
6.121583e-02 
5.301486e-02 
4.926672e-02 
5.115702e-02 
5.896512e-02 
7.163094e-02 
8.825325e-02 
1.077936e-01 
1.295093e-01 
1.528813e-01 
1.775395e-01 
2.032147e-01 
2.297061e-01 
2.568620e-01 
2.845664e-01 
3.127284e-01 
3.412764e-01 
3.701525e-01 
3.993098e-01 
4.287099e-01 
4.583210e-01 
4.881165e-01 
5.180740e-01 
5.481747e-01 
5.784026e-01 
6.087437e-01 
6.391865e-01 
6.697204e-01 
7.003368e-01 
7.310278e-01 
7.617865e-01 
7.926070e-01 
8.234839e-01 
8.544125e-01 
8.853886e-01 
8.334659e-01 
8.025583e-01 
7.716674e-01 
7.408240e-01 
7.100351e-01 
6.793054e-01 
6.486406e-01 
6.180474e-01 
5.875333e-01 
5.571075e-01 
5.267803e-01 
4.965640e-01 
4.664731e-01 
4.365248e-01 
4.067395e-01 
3.771418e-01 
3.477617e-01 
3.186355e-01 
2.898082e-01 
2.613362e-01 
2.332914e-01 
2.057664e-01 
1.788803e-01 
1.527854e-01 
1.276769e-01 
1.038120e-01 
8.154721e-02 
6.139465e-02 
4.408798e-02 
3.054282e-02 
2.148698e-02 
1.751623e-02 
1.947339e-02 
2.820314e-02 
4.254546e-02 
6.124355e-02 
8.281319e-02 
1.063888e-01 
1.314269e-01 
1.575663e-01 
1.845560e-01 
2.122163e-01 
2.404155e-01 
2.690546e-01 
2.980575e-01 
3.273646e-01 
3.569287e-01 
3.867119e-01 
4.166834e-01 
4.468178e-01 
4.770940e-01 
5.074946e-01 
5.380048e-01 
5.686120e-01 
5.993056e-01 
6.300763e-01 
6.609163e-01 
6.918187e-01 
7.227776e-01 
7.537876e-01 
7.848443e-01 
8.159435e-01 
8.470816e-01 
8.782555e-01 
8.268145e-01 
7.956938e-01 
7.645790e-01 
7.334997e-01 
7.024611e-01 
6.714664e-01 
6.405195e-01 
6.096247e-01 
5.787876e-01 
5.480145e-01 
5.173133e-01 
4.866930e-01 
4.561647e-01 
4.257412e-01 
3.954382e-01 
3.652745e-01 
3.352730e-01 
3.054618e-01 
2.758761e-01 
2.465607e-01 
2.175738e-01 
1.889916e-01 
1.609133e-01 
1.334683e-01 
1.068291e-01 
8.123628e-02 
5.704258e-02 
3.478879e-02 
1.537708e-02 
1.666175e-04 
-9.836724e-03 
-1.410192e-02 
-1.156659e-02 
-1.887974e-03 
1.423382e-02 
3.561445e-02 
5.955112e-02 
8.515625e-02 
1.119306e-01 
1.395625e-01 
1.678442e-01 
1.966318e-01 
2.258217e-01 
2.553372e-01 
2.851201e-01 
3.151254e-01 
3.453176e-01 
3.756687e-01 
4.061559e-01 
4.367604e-01 
4.674670e-01 
4.982629e-01 
5.291374e-01 
5.600813e-01 
5.910870e-01 
6.221477e-01 
6.532579e-01 
6.844126e-01 
7.156075e-01 
7.468388e-01 
7.781033e-01 
8.093980e-01 
8.407204e-01 
8.720682e-01 
8.212091e-01 
7.899000e-01 
7.585871e-01 
7.272994e-01 
6.960409e-01 
6.648134e-01 
6.336189e-01 
6.024600e-01 
5.713400e-01 
5.402632e-01 
5.092346e-01 
4.782604e-01 
4.473481e-01 
4.165067e-01 
3.857467e-01 
3.550810e-01 
3.245254e-01 
2.940992e-01 
2.638269e-01 
2.337401e-01 
2.038801e-01 
1.743015e-01 
1.450772e-01 
1.163054e-01 
8.812293e-02 
6.072944e-02 
3.442500e-02 
9.675125e-03 
-1.152129e-02 
-2.785733e-02 
-3.940847e-02 
-4.528792e-02 
-4.109796e-02 
-2.945694e-02 
-1.136212e-02 
1.215965e-02 
3.871798e-02 
6.640797e-02 
9.488506e-02 
1.239357e-01 
1.534187e-01 
1.832366e-01 
2.133199e-01 
2.436173e-01 
2.740899e-01 
3.047081e-01 
3.354486e-01 
3.662928e-01 
3.972258e-01 
4.282354e-01 
4.593117e-01 
4.904462e-01 
5.216320e-01 
5.528631e-01 
5.841345e-01 
6.154420e-01 
6.467816e-01 
6.781503e-01 
7.095452e-01 
7.409639e-01 
7.724043e-01 
8.038644e-01 
8.353425e-01 
8.668372e-01 
8.167059e-01 
7.852335e-01 
7.537479e-01 
7.222796e-01 
6.908316e-01 
6.594044e-01 
6.279986e-01 
5.966153e-01 
5.652561e-01 
5.339230e-01 
5.026191e-01 
4.713478e-01 
4.401135e-01 
4.089214e-01 
3.777775e-01 
3.466893e-01 
3.156654e-01 
2.847170e-01 
2.538579e-01 
2.231058e-01 
1.924839e-01 
1.620234e-01 
1.317669e-01 
1.017752e-01 
7.213711e-02 
4.298915e-02 
1.455435e-02 
-1.175471e-02 
-3.409681e-02 
-5.321315e-02 
-6.767124e-02 
-7.591742e-02 
-6.874013e-02 
-5.303722e-02 
-3.166206e-02 
-7.199923e-03 
2.133345e-02 
5.089205e-02 
8.086118e-02 
1.111341e-01 
1.416383e-01 
1.723230e-01 
2.031515e-01 
2.340966e-01 
2.651377e-01 
2.962588e-01 
3.274475e-01 
3.586937e-01 
3.899893e-01 
4.213278e-01 
4.527037e-01 
4.841123e-01 
5.155498e-01 
5.470129e-01 
5.784989e-01 
6.100052e-01 
6.415299e-01 
6.730710e-01 
7.046270e-01 
7.361964e-01 
7.677781e-01 
7.993711e-01 
8.309742e-01 
8.625868e-01 
8.133958e-01 
7.817825e-01 
7.501479e-01 
7.185248e-01 
6.869159e-01 
6.553210e-01 
6.237395e-01 
5.921715e-01 
5.606170e-01 
5.290769e-01 
4.975522e-01 
4.660444e-01 
4.345556e-01 
4.030878e-01 