# vtk DataFile Version 2.0 
Quadtree Mesh 
ASCII 
DATASET UNSTRUCTURED_GRID 
POINTS 4096 double 
-1.000000e+00 -1.000000e+00 0.000000e+00
-9.682540e-01 -1.000000e+00 0.000000e+00
-9.365079e-01 -1.000000e+00 0.000000e+00
-9.047619e-01 -1.000000e+00 0.000000e+00
-8.730159e-01 -1.000000e+00 0.000000e+00
-8.412698e-01 -1.000000e+00 0.000000e+00
-8.095238e-01 -1.000000e+00 0.000000e+00
-7.777778e-01 -1.000000e+00 0.000000e+00
-7.460317e-01 -1.000000e+00 0.000000e+00
-7.142857e-01 -1.000000e+00 0.000000e+00
-6.825397e-01 -1.000000e+00 0.000000e+00
-6.507937e-01 -1.000000e+00 0.000000e+00
-6.190476e-01 -1.000000e+00 0.000000e+00
-5.873016e-01 -1.000000e+00 0.000000e+00
-5.555556e-01 -1.000000e+00 0.000000e+00
-5.238095e-01 -1.000000e+00 0.000000e+00
-4.920635e-01 -1.000000e+00 0.000000e+00
-4.603175e-01 -1.000000e+00 0.000000e+00
-4.285714e-01 -1.000000e+00 0.000000e+00
-3.968254e-01 -1.000000e+00 0.000000e+00
-3.650794e-01 -1.000000e+00 0.000000e+00
-3.333333e-01 -1.000000e+00 0.000000e+00
-3.015873e-01 -1.000000e+00 0.000000e+00
-2.698413e-01 -1.000000e+00 0.000000e+00
-2.380952e-01 -1.000000e+00 0.000000e+00
-2.063492e-01 -1.000000e+00 0.000000e+00
-1.746032e-01 -1.000000e+00 0.000000e+00
-1.428571e-01 -1.000000e+00 0.000000e+00
-1.111111e-01 -1.000000e+00 0.000000e+00
-7.936508e-02 -1.000000e+00 0.000000e+00
-4.761905e-02 -1.000000e+00 0.000000e+00
-1.587302e-02 -1.000000e+00 0.000000e+00
1.587302e-02 -1.000000e+00 0.000000e+00
4.761905e-02 -1.000000e+00 0.000000e+00
7.936508e-02 -1.000000e+00 0.000000e+00
1.111111e-01 -1.000000e+00 0.000000e+00
1.428571e-01 -1.000000e+00 0.000000e+00
1.746032e-01 -1.000000e+00 0.000000e+00
2.063492e-01 -1.000000e+00 0.000000e+00
2.380952e-01 -1.000000e+00 0.000000e+00
2.698413e-01 -1.000000e+00 0.000000e+00
3.015873e-01 -1.000000e+00 0.000000e+00
3.333333e-01 -1.000000e+00 0.000000e+00
3.650794e-01 -1.000000e+00 0.000000e+00
3.968254e-01 -1.000000e+00 0.000000e+00
4.285714e-01 -1.000000e+00 0.000000e+00
4.603175e-01 -1.000000e+00 0.000000e+00
4.920635e-01 -1.000000e+00 0.000000e+00
5.238095e-01 -1.000000e+00 0.000000e+00
5.555556e-01 -1.000000e+00 0.000000e+00
5.873016e-01 -1.000000e+00 0.000000e+00
6.190476e-01 -1.000000e+00 0.000000e+00
6.507937e-01 -1.000000e+00 0.000000e+00
6.825397e-01 -1.000000e+00 0.000000e+00
7.142857e-01 -1.000000e+00 0.000000e+00
7.460317e-01 -1.000000e+00 0.000000e+00
7.777778e-01 -1.000000e+00 0.000000e+00
8.095238e-01 -1.000000e+00 0.000000e+00
8.412698e-01 -1.000000e+00 0.000000e+00
8.730159e-01 -1.000000e+00 0.000000e+00
9.047619e-01 -1.000000e+00 0.000000e+00
9.365079e-01 -1.000000e+00 0.000000e+00
9.682540e-01 -1.000000e+00 0.000000e+00
1.000000e+00 -1.000000e+00 0.000000e+00
-1.000000e+00 -9.682540e-01 0.000000e+00
-9.682540e-01 -9.682540e-01 0.000000e+00
-9.365079e-01 -9.682540e-01 0.000000e+00
-9.047619e-01 -9.682540e-01 0.000000e+00
-8.730159e-01 -9.682540e-01 0.000000e+00
-8.412698e-01 -9.682540e-01 0.000000e+00
-8.095238e-01 -9.682540e-01 0.000000e+00
-7.777778e-01 -9.682540e-01 0.000000e+00
-7.460317e-01 -9.682540e-01 0.000000e+00
-7.142857e-01 -9.682540e-01 0.000000e+00
-6.825397e-01 -9.682540e-01 0.000000e+00
-6.507937e-01 -9.682540e-01 0.000000e+00
-6.190476e-01 -9.682540e-01 0.000000e+00
-5.873016e-01 -9.682540e-01 0.000000e+00
-5.555556e-01 -9.682540e-01 0.000000e+00
-5.238095e-01 -9.682540e-01 0.000000e+00
-4.920635e-01 -9.682540e-01 0.000000e+00
-4.603175e-01 -9.682540e-01 0.000000e+00
-4.285714e-01 -9.682540e-01 0.000000e+00
-3.968254e-01 -9.682540e-01 0.000000e+00
-3.650794e-01 -9.682540e-01 0.000000e+00
-3.333333e-01 -9.682540e-01 0.000000e+00
-3.015873e-01 -9.682540e-01 0.000000e+00
-2.698413e-01 -9.682540e-01 0.000000e+00
-2.380952e-01 -9.682540e-01 0.000000e+00
-2.063492e-01 -9.682540e-01 0.000000e+00
-1.746032e-01 -9.682540e-01 0.000000e+00
-1.428571e-01 -9.682540e-01 0.000000e+00
-1.111111e-01 -9.682540e-01 0.000000e+00
-7.936508e-02 -9.682540e-01 0.000000e+00
-4.761905e-02 -9.682540e-01 0.000000e+00
-1.587302e-02 -9.682540e-01 0.000000e+00
1.587302e-02 -9.682540e-01 0.000000e+00
4.761905e-02 -9.682540e-01 0.000000e+00
7.936508e-02 -9.682540e-01 0.000000e+00
1.111111e-01 -9.682540e-01 0.000000e+00
1.428571e-01 -9.682540e-01 0.000000e+00
1.746032e-01 -9.682540e-01 0.000000e+00
2.063492e-01 -9.682540e-01 0.000000e+00
2.380952e-01 -9.682540e-01 0.000000e+00
2.698413e-01 -9.682540e-01 0.000000e+00
3.015873e-01 -9.682540e-01 0.000000e+00
3.333333e-01 -9.682540e-01 0.000000e+00
3.650794e-01 -9.682540e-01 0.000000e+00
3.968254e-01 -9.682540e-01 0.000000e+00
4.285714e-01 -9.682540e-01 0.000000e+00
4.603175e-01 -9.682540e-01 0.000000e+00
4.920635e-01 -9.682540e-01 0.000000e+00
5.238095e-01 -9.682540e-01 0.000000e+00
5.555556e-01 -9.682540e-01 0.000000e+00
5.873016e-01 -9.682540e-01 0.000000e+00
6.190476e-01 -9.682540e-01 0.000000e+00
6.507937e-01 -9.682540e-01 0.000000e+00
6.825397e-01 -9.682540e-01 0.000000e+00
7.142857e-01 -9.682540e-01 0.000000e+00
7.460317e-01 -9.682540e-01 0.000000e+00
7.777778e-01 -9.682540e-01 0.000000e+00
8.095238e-01 -9.682540e-01 0.000000e+00
8.412698e-01 -9.682540e-01 0.000000e+00
8.730159e-01 -9.682540e-01 0.000000e+00
9.047619e-01 -9.682540e-01 0.000000e+00
9.365079e-01 -9.682540e-01 0.000000e+00
9.682540e-01 -9.682540e-01 0.000000e+00
1.000000e+00 -9.682540e-01 0.000000e+00
-1.000000e+00 -9.365079e-01 0.000000e+00
-9.682540e-01 -9.365079e-01 0.000000e+00
-9.365079e-01 -9.365079e-01 0.000000e+00
-9.047619e-01 -9.365079e-01 0.000000e+00
-8.730159e-01 -9.365079e-01 0.000000e+00
-8.412698e-01 -9.365079e-01 0.000000e+00
-8.095238e-01 -9.365079e-01 0.000000e+00
-7.777778e-01 -9.365079e-01 0.000000e+00
-7.460317e-01 -9.365079e-01 0.000000e+00
-7.142857e-01 -9.365079e-01 0.000000e+00
-6.825397e-01 -9.365079e-01 0.000000e+00
-6.507937e-01 -9.365079e-01 0.000000e+00
-6.190476e-01 -9.365079e-01 0.000000e+00
-5.873016e-01 -9.365079e-01 0.000000e+00
-5.555556e-01 -9.365079e-01 0.000000e+00
-5.238095e-01 -9.365079e-01 0.000000e+00
-4.920635e-01 -9.365079e-01 0.000000e+00
-4.603175e-01 -9.365079e-01 0.000000e+00
-4.285714e-01 -9.365079e-01 0.000000e+00
-3.968254e-01 -9.365079e-01 0.000000e+00
-3.650794e-01 -9.365079e-01 0.000000e+00
-3.333333e-01 -9.365079e-01 0.000000e+00
-3.015873e-01 -9.365079e-01 0.000000e+00
-2.698413e-01 -9.365079e-01 0.000000e+00
-2.380952e-01 -9.365079e-01 0.000000e+00
-2.063492e-01 -9.365079e-01 0.000000e+00
-1.746032e-01 -9.365079e-01 0.000000e+00
-1.428571e-01 -9.365079e-01 0.000000e+00
-1.111111e-01 -9.365079e-01 0.000000e+00
-7.936508e-02 -9.365079e-01 0.000000e+00
-4.761905e-02 -9.365079e-01 0.000000e+00
-1.587302e-02 -9.365079e-01 0.000000e+00
1.587302e-02 -9.365079e-01 0.000000e+00
4.761905e-02 -9.365079e-01 0.000000e+00
7.936508e-02 -9.365079e-01 0.000000e+00
1.111111e-01 -9.365079e-01 0.000000e+00
1.428571e-01 -9.365079e-01 0.000000e+00
1.746032e-01 -9.365079e-01 0.000000e+00
2.063492e-01 -9.365079e-01 0.000000e+00
2.380952e-01 -9.365079e-01 0.000000e+00
2.698413e-01 -9.365079e-01 0.000000e+00
3.015873e-01 -9.365079e-01 0.000000e+00
3.333333e-01 -9.365079e-01 0.000000e+00
3.650794e-01 -9.365079e-01 0.000000e+00
3.968254e-01 -9.365079e-01 0.000000e+00
4.285714e-01 -9.365079e-01 0.000000e+00
4.603175e-01 -9.365079e-01 0.000000e+00
4.920635e-01 -9.365079e-01 0.000000e+00
5.238095e-01 -9.365079e-01 0.000000e+00
5.555556e-01 -9.365079e-01 0.000000e+00
5.873016e-01 -9.365079e-01 0.000000e+00
6.190476e-01 -9.365079e-01 0.000000e+00
6.507937e-01 -9.365079e-01 0.000000e+00
6.825397e-01 -9.365079e-01 0.000000e+00
7.142857e-01 -9.365079e-01 0.000000e+00
7.460317e-01 -9.365079e-01 0.000000e+00
7.777778e-01 -9.365079e-01 0.000000e+00
8.095238e-01 -9.365079e-01 0.000000e+00
8.412698e-01 -9.365079e-01 0.000000e+00
8.730159e-01 -9.365079e-01 0.000000e+00
9.047619e-01 -9.365079e-01 0.000000e+00
9.365079e-01 -9.365079e-01 0.000000e+00
9.682540e-01 -9.365079e-01 0.000000e+00
1.000000e+00 -9.365079e-01 0.000000e+00
-1.000000e+00 -9.047619e-01 0.000000e+00
-9.682540e-01 -9.047619e-01 0.000000e+00
-9.365079e-01 -9.047619e-01 0.000000e+00
-9.047619e-01 -9.047619e-01 0.000000e+00
-8.730159e-01 -9.047619e-01 0.000000e+00
-8.412698e-01 -9.047619e-01 0.000000e+00
-8.095238e-01 -9.047619e-01 0.000000e+00
-7.777778e-01 -9.047619e-01 0.000000e+00
-7.460317e-01 -9.047619e-01 0.000000e+00
-7.142857e-01 -9.047619e-01 0.000000e+00
-6.825397e-01 -9.047619e-01 0.000000e+00
-6.507937e-01 -9.047619e-01 0.000000e+00
-6.190476e-01 -9.047619e-01 0.000000e+00
-5.873016e-01 -9.047619e-01 0.000000e+00
-5.555556e-01 -9.047619e-01 0.000000e+00
-5.238095e-01 -9.047619e-01 0.000000e+00
-4.920635e-01 -9.047619e-01 0.000000e+00
-4.603175e-01 -9.047619e-01 0.000000e+00
-4.285714e-01 -9.047619e-01 0.000000e+00
-3.968254e-01 -9.047619e-01 0.000000e+00
-3.650794e-01 -9.047619e-01 0.000000e+00
-3.333333e-01 -9.047619e-01 0.000000e+00
-3.015873e-01 -9.047619e-01 0.000000e+00
-2.698413e-01 -9.047619e-01 0.000000e+00
-2.380952e-01 -9.047619e-01 0.000000e+00
-2.063492e-01 -9.047619e-01 0.000000e+00
-1.746032e-01 -9.047619e-01 0.000000e+00
-1.428571e-01 -9.047619e-01 0.000000e+00
-1.111111e-01 -9.047619e-01 0.000000e+00
-7.936508e-02 -9.047619e-01 0.000000e+00
-4.761905e-02 -9.047619e-01 0.000000e+00
-1.587302e-02 -9.047619e-01 0.000000e+00
1.587302e-02 -9.047619e-01 0.000000e+00
4.761905e-02 -9.047619e-01 0.000000e+00
7.936508e-02 -9.047619e-01 0.000000e+00
1.111111e-01 -9.047619e-01 0.000000e+00
1.428571e-01 -9.047619e-01 0.000000e+00
1.746032e-01 -9.047619e-01 0.000000e+00
2.063492e-01 -9.047619e-01 0.000000e+00
2.380952e-01 -9.047619e-01 0.000000e+00
2.698413e-01 -9.047619e-01 0.000000e+00
3.015873e-01 -9.047619e-01 0.000000e+00
3.333333e-01 -9.047619e-01 0.000000e+00
3.650794e-01 -9.047619e-01 0.000000e+00
3.968254e-01 -9.047619e-01 0.000000e+00
4.285714e-01 -9.047619e-01 0.000000e+00
4.603175e-01 -9.047619e-01 0.000000e+00
4.920635e-01 -9.047619e-01 0.000000e+00
5.238095e-01 -9.047619e-01 0.000000e+00
5.555556e-01 -9.047619e-01 0.000000e+00
5.873016e-01 -9.047619e-01 0.000000e+00
6.190476e-01 -9.047619e-01 0.000000e+00
[...]
POINT_DATA 4096 
SCALARS concentration double 1 
LOOKUP_TABLE default 
1.358350e+00 
1.333435e+00 
1.308699e+00 
1.284206e+00 
1.259979e+00 
1.236032e+00 
1.212380e+00 
1.189036e+00 
1.166018e+00 
1.143343e+00 
1.121026e+00 
1.099088e+00 
1.077548e+00 
1.056425e+00 
1.035741e+00 
1.015518e+00 
9.957803e-01 
9.765518e-01 
9.578584e-01 
9.397270e-01 
9.221860e-01 
9.052648e-01 
8.889940e-01 
8.734051e-01 
8.585308e-01 
8.444042e-01 
8.310595e-01 
8.185310e-01 
8.068533e-01 
7.960611e-01 
7.861892e-01 
7.772722e-01 
7.693441e-01 
7.624338e-01 
7.565651e-01 
7.517610e-01 
7.480439e-01 
7.454341e-01 
7.439539e-01 
7.439751e-01 
7.456695e-01 
7.488394e-01 
7.533222e-01 
7.590064e-01 
7.658194e-01 
7.737091e-01 
7.826322e-01 
7.925489e-01 
8.034207e-01 
8.152092e-01 
8.278763e-01 
8.413842e-01 
8.556957e-01 
8.707742e-01 
8.865839e-01 
9.030902e-01 
9.202596e-01 
9.380596e-01 
9.564592e-01 
9.754286e-01 
9.949393e-01 
1.014964e+00 
1.035477e+00 
1.056459e+00 
1.338810e+00 
1.313580e+00 
1.288522e+00 
1.263701e+00 
1.239139e+00 
1.214850e+00 
1.190848e+00 
1.167150e+00 
1.143770e+00 
1.120726e+00 
1.098036e+00 
1.075718e+00 
1.053792e+00 
1.032278e+00 
1.011198e+00 
9.905753e-01 
9.704336e-01 
9.507985e-01 
9.316965e-01 
9.131560e-01 
8.952063e-01 
8.778783e-01 
8.612043e-01 
8.452175e-01 
8.299525e-01 
8.154446e-01 
8.017299e-01 
7.888453e-01 
7.768279e-01 
7.657150e-01 
7.555447e-01 
7.463550e-01 
7.381823e-01 
7.310582e-01 
7.250085e-01 
7.200588e-01 
7.162334e-01 
7.135546e-01 
7.120455e-01 
7.121288e-01 
7.139465e-01 
7.172735e-01 
7.219390e-01 
7.278314e-01 
7.348793e-01 
7.430306e-01 
7.522408e-01 
7.624683e-01 
7.736720e-01 
7.858108e-01 
7.988441e-01 
8.127315e-01 
8.274332e-01 
8.429105e-01 
8.591254e-01 
8.760414e-01 
8.936232e-01 
9.118369e-01 
9.306500e-01 
9.500316e-01 
9.699522e-01 
9.903835e-01 
1.011299e+00 
1.032677e+00 
1.319692e+00 
1.294141e+00 
1.268759e+00 
1.243607e+00 
1.218707e+00 
1.194073e+00 
1.169719e+00 
1.145661e+00 
1.121915e+00 
1.098497e+00 
1.075427e+00 
1.052721e+00 
1.030401e+00 
1.008488e+00 
9.870021e-01 
9.659685e-01 
9.454113e-01 
9.253569e-01 
9.058328e-01 
8.868685e-01 
8.684948e-01 
8.507440e-01 
8.336499e-01 
8.172477e-01 
8.015738e-01 
7.866657e-01 
7.725621e-01 
7.593021e-01 
7.469257e-01 
7.354737e-01 
7.249874e-01 
7.155077e-01 
7.070741e-01 
6.997209e-01 
6.934770e-01 
6.883707e-01 
6.844289e-01 
6.816757e-01 
6.801354e-01 
6.802863e-01 
6.822335e-01 
6.857235e-01 
6.905791e-01 
6.966895e-01 
7.039845e-01 
7.124116e-01 
7.219248e-01 
7.324799e-01 
7.440329e-01 
7.565398e-01 
7.699570e-01 
7.842412e-01 
7.993500e-01 
8.152422e-01 
8.318777e-01 
8.492178e-01 
8.672255e-01 
8.858654e-01 
9.051035e-01 
9.249076e-01 
9.452472e-01 
9.660934e-01 
9.874186e-01 
1.009200e+00 
1.301004e+00 
1.275133e+00 
1.249425e+00 
1.223942e+00 
1.198701e+00 
1.173719e+00 
1.149010e+00 
1.124589e+00 
1.100472e+00 
1.076676e+00 
1.053218e+00 
1.030119e+00 
1.007398e+00 
9.850752e-01 
9.631743e-01 
9.417190e-01 
9.207345e-01 
9.002479e-01 
8.802880e-01 
8.608852e-01 
8.420717e-01 
8.238813e-01 
8.063496e-01 
7.895135e-01 
7.734116e-01 
7.580835e-01 
7.435703e-01 
7.299142e-01 
7.171583e-01 
7.053471e-01 
6.945253e-01 
6.847371e-01 
6.760252e-01 
6.684274e-01 
6.619761e-01 
6.567027e-01 
6.526366e-01 
6.498043e-01 
6.482314e-01 
6.484563e-01 
6.505390e-01 
6.541984e-01 
6.592527e-01 
6.655926e-01 
6.731491e-01 
6.818689e-01 
6.917035e-01 
7.026057e-01 
7.145281e-01 
7.274235e-01 
7.412448e-01 
7.559458e-01 
7.714810e-01 
7.878067e-01 
8.048803e-01 
8.226612e-01 
8.411104e-01 
8.601907e-01 
8.798670e-01 
9.001058e-01 
9.208756e-01 
9.421464e-01 
9.638902e-01 
9.860838e-01 
1.282766e+00 
1.256575e+00 
1.230542e+00 
1.204724e+00 
1.179143e+00 
1.153811e+00 
1.128744e+00 
1.103956e+00 
1.079464e+00 
1.055284e+00 
1.031435e+00 
1.007935e+00 
9.848043e-01 
9.620647e-01 
9.397387e-01 
9.178509e-01 
8.964272e-01 
8.754956e-01 
8.550859e-01 
8.352296e-01 
8.159602e-01 
7.973131e-01 
7.793254e-01 
7.620360e-01 
7.454855e-01 
7.297160e-01 
7.147714e-01 
7.006968e-01 
6.875390e-01 
6.753466e-01 
6.641677e-01 
6.540502e-01 
6.450410e-01 
6.371817e-01 
6.305084e-01 
6.250560e-01 
6.208570e-01 
6.179403e-01 
6.163334e-01 
6.166387e-01 
6.188626e-01 
6.226982e-01 
6.279607e-01 
6.345434e-01 
6.423777e-01 
6.514087e-01 
6.615852e-01 
6.728560e-01 
6.851701e-01 
6.984763e-01 
7.127239e-01 
7.278631e-01 
7.438456e-01 
7.606246e-01 
7.781552e-01 
7.963945e-01 
8.153016e-01 
8.348377e-01 
8.549661e-01 
8.756523e-01 
8.968637e-01 
9.185696e-01 
9.407415e-01 
9.633556e-01 
1.265001e+00 
1.238490e+00 
1.212131e+00 
1.185980e+00 
1.160056e+00 
1.134373e+00 
1.108946e+00 
1.083789e+00 
1.058918e+00 
1.034350e+00 
1.010103e+00 
9.861964e-01 
9.626494e-01 
9.394839e-01 
9.167232e-01 
8.943921e-01 
8.725174e-01 
8.511278e-01 
8.302540e-01 
8.099288e-01 
7.901868e-01 
7.710650e-01 
7.526020e-01 
7.348386e-01 
7.178177e-01 
7.015839e-01 
6.861840e-01 
6.716666e-01 
6.580827e-01 
6.454846e-01 
6.339247e-01 
6.234553e-01 
6.141277e-01 
6.059879e-01 
5.990761e-01 
5.934314e-01 
5.890897e-01 
5.860825e-01 
5.844399e-01 
5.848321e-01 
5.872030e-01 
5.912218e-01 
5.967033e-01 
6.035436e-01 
6.116740e-01 
6.210372e-01 
6.315781e-01 
6.432413e-01 
6.559712e-01 
6.697123e-01 
6.844098e-01 
7.000104e-01 
7.164622e-01 
7.337156e-01 
7.517229e-01 
7.704389e-01 
7.898209e-01 
8.098284e-01 
8.304234e-01 
8.515700e-01 
8.732348e-01 
8.953868e-01 
9.179967e-01 
9.410402e-01 
1.247736e+00 
1.220904e+00 
1.194219e+00 
1.167734e+00 
1.141467e+00 
1.115432e+00 
1.089642e+00 
1.064113e+00 
1.038860e+00 
1.013900e+00 
9.892500e-01 
9.649295e-01 
9.409585e-01 
9.173587e-01 
8.941536e-01 
8.713686e-01 
8.490310e-01 
8.271703e-01 
8.058181e-01 
7.850082e-01 
7.647765e-01 
7.451613e-01 
7.262029e-01 
7.079439e-01 
6.904295e-01 
6.737072e-01 
6.578268e-01 
6.428409e-01 
6.288049e-01 
6.157751e-01 
6.038085e-01 
5.929624e-01 
5.832932e-01 
5.748518e-01 
5.676834e-01 
5.618314e-01 
5.573357e-01 
5.542313e-01 
5.525507e-01 
5.530355e-01 
5.555586e-01 
5.597683e-01 
5.654812e-01 
5.725959e-01 
5.810429e-01 
5.907614e-01 
6.016917e-01 
6.137732e-01 
6.269451e-01 
6.411472e-01 
6.563202e-01 
6.724066e-01 
6.893510e-01 
7.071006e-01 
7.256051e-01 
7.448169e-01 
7.646913e-01 
7.851862e-01 
8.062623e-01 
8.278827e-01 
8.500134e-01 
8.726225e-01 
8.956803e-01 
9.191617e-01 
1.230976e+00 
1.203817e+00 
1.176807e+00 
1.149987e+00 
1.123377e+00 
1.096988e+00 
1.070835e+00 
1.044932e+00 
1.019294e+00 
9.939380e-01 
9.688809e-01 
9.441416e-01 
9.197402e-01 
8.956988e-01 
8.720409e-01 
8.487925e-01 
8.259813e-01 
8.036376e-01 
7.817938e-01 
7.604845e-01 
7.397468e-01 
7.196201e-01 
7.001466e-01 
6.813707e-01 
6.633399e-01 
6.461046e-01 
6.297181e-01 
6.142374e-01 
5.997221e-01 
5.862334e-01 
5.738333e-01 
5.625845e-01 
5.525488e-01 
5.437827e-01 
5.363373e-01 
5.302616e-01 
5.255998e-01 
5.223907e-01 
5.206701e-01 
5.212513e-01 
5.239309e-01 
5.283402e-01 
5.342988e-01 
5.417073e-01 
5.504942e-01 
5.605940e-01 
5.719413e-01 
5.844695e-01 
5.981121e-01 
6.128033e-01 
6.284790e-01 
6.450773e-01 
6.625389e-01 
6.808077e-01 
6.998305e-01 
7.195575e-01 
7.399422e-01 
7.609408e-01 
7.825129e-01 
8.046208e-01 
8.272294e-01 
8.503063e-01 
8.738212e-01 
8.977483e-01 
1.214668e+00 
1.187201e+00 
1.159870e+00 
1.132720e+00 
1.105769e+00 
1.079030e+00 
1.052515e+00 
1.026239e+00 
1.000217e+00 
9.744645e-01 
9.489991e-01 
9.238392e-01 
8.990049e-01 
8.745182e-01 
8.504028e-01 
8.266850e-01 
8.033929e-01 
7.805573e-01 
7.582112e-01 
7.363901e-01 
7.151320e-01 
6.944777e-01 
6.744707e-01 
6.551576e-01 
6.365883e-01 
6.188160e-01 
6.018977e-01 
5.858950e-01 
5.708722e-01 
5.568954e-01 
5.440324e-01 
5.323522e-01 
5.219226e-01 
5.128069e-01 
5.050631e-01 
4.987458e-01 
4.939046e-01 
4.905826e-01 
4.888196e-01 
4.894868e-01 
4.923207e-01 
4.969382e-01 
5.031589e-01 
5.108833e-01 
5.200363e-01 
5.305465e-01 
5.423417e-01 
5.553485e-01 
5.694936e-01 
5.847052e-01 
6.009137e-01 
6.180525e-01 
6.360583e-01 
6.548713e-01 
6.744355e-01 
6.946990e-01 
7.156132e-01 
7.371331e-01 
7.592171e-01 
7.818265e-01 
8.049255e-01 
8.284808e-01 
8.524619e-01 
8.768428e-01 
1.198974e+00 
1.171194e+00 
1.143542e+00 
1.116063e+00 
1.088771e+00 
1.061680e+00 
1.034802e+00 
1.008151e+00 
9.817409e-01 
9.555883e-01 
9.297094e-01 
9.041227e-01 
8.788481e-01 
8.539075e-01 
8.293249e-01 
8.051265e-01 
7.813410e-01 
7.579992e-01 
7.351348e-01 
7.127838e-01 
6.909852e-01 
6.697806e-01 
6.492153e-01 
6.293379e-01 
6.102007e-01 
5.918602e-01 
5.743773e-01 
5.578182e-01 
5.422521e-01 
5.277510e-01 
5.143892e-01 
5.022426e-01 
4.913869e-01 
4.818929e-01 
4.738255e-01 
4.672464e-01 
4.622111e-01 
4.587680e-01 
4.569614e-01 
4.577339e-01 
4.607368e-01 
4.655783e-01 
4.720822e-01 
4.801490e-01 
4.896988e-01 
5.006527e-01 
5.129302e-01 
5.264501e-01 
5.411317e-01 
5.568964e-01 
5.736689e-01 
5.913773e-01 
6.099539e-01 
6.293357e-01 
6.494637e-01 
6.702837e-01 
6.917454e-01 
7.138025e-01 
7.364121e-01 
7.595346e-01 
7.831336e-01 
8.071755e-01 
8.316295e-01 
8.564692e-01 
1.183853e+00 
1.155763e+00 
1.127794e+00 
1.099987e+00 
1.072357e+00 
1.044915e+00 
1.017675e+00 
9.906488e-01 
9.638511e-01 
9.372968e-01 
9.110024e-01 
8.849860e-01 
8.592673e-01 
8.338680e-01 
8.088122e-01 
7.841260e-01 
7.598381e-01 
7.359796e-01 
7.125842e-01 
6.896884e-01 
6.673319e-01 
6.455575e-01 
6.244118e-01 
6.039454e-01 
5.842133e-01 
5.652752e-01 
5.471959e-01 
5.300467e-01 
5.139019e-01 
4.988397e-01 
4.849416e-01 
4.722915e-01 
4.609733e-01 
4.510666e-01 
4.426452e-01 
4.357792e-01 
4.305309e-01 
4.269548e-01 
4.251007e-01 
4.259832e-01 
4.291625e-01 
4.342427e-01 
4.410525e-01 
4.494908e-01 
4.594707e-01 
4.709044e-01 
4.837016e-01 
4.977719e-01 
5.130264e-01 
5.293791e-01 
5.467481e-01 
5.650562e-01 
5.842313e-01 
6.042069e-01 
6.249213e-01 
6.463180e-01 
6.683451e-01 
6.909547e-01 
7.141030e-01 
7.377498e-01 
7.618580e-01 
7.863940e-01 
8.113267e-01 
8.366298e-01 
1.169325e+00 
1.140930e+00 
1.112648e+00 
1.084517e+00 
1.056552e+00 
1.028763e+00 
1.001163e+00 
9.737632e-01 
9.465781e-01 
9.196222e-01 
8.929113e-01 
8.664633e-01 
8.402976e-01 
8.144359e-01 
7.889017e-01 
7.637213e-01 
7.389229e-01 
7.145376e-01 
6.905992e-01 
6.671443e-01 
6.442131e-01 
6.218493e-01 
6.001010e-01 
5.790208e-01 
5.586661e-01 
5.390999e-01 
5.203912e-01 
5.026158e-01 
4.858540e-01 
4.701907e-01 
4.557151e-01 
4.425201e-01 
4.306993e-01 
4.203426e-01 
4.115343e-01 
4.043540e-01 
3.988724e-01 
3.951509e-01 
3.932464e-01 
3.942429e-01 
3.976071e-01 
4.029439e-01 
4.100868e-01 
4.189306e-01 
4.293792e-01 
4.413336e-01 
4.546924e-01 
4.693546e-01 
4.852220e-01 
5.022003e-01 
5.202009e-01 
5.391409e-01 
5.589438e-01 
5.795396e-01 
6.008642e-01 
6.228587e-01 
6.454695e-01 
6.686475e-01 
6.923479e-01 
7.165301e-01 
7.411568e-01 
7.661943e-01 
7.916115e-01 
8.173821e-01 
1.155411e+00 
1.126717e+00 
1.098127e+00 
1.069678e+00 
1.041382e+00 
1.013249e+00 
9.852924e-01 
9.575224e-01 
9.299523e-01 
9.025962e-01 
8.754696e-01 
8.485899e-01 
8.219760e-01 
7.956493e-01 
7.696330e-01 
7.439528e-01 
7.186368e-01 
6.937156e-01 
6.692229e-01 
6.451953e-01 
6.216733e-01 
5.987014e-01 
5.763289e-01 
5.546100e-01 
5.336047e-01 
5.133790e-01 
4.940060e-01 
4.755664e-01 
4.581463e-01 
4.418380e-01 
4.267395e-01 
4.129534e-01 
4.005848e-01 
3.897356e-01 
3.805024e-01 
3.729765e-01 
3.672383e-01 
3.633576e-01 
3.613994e-01 
3.625137e-01 
3.660721e-01 
3.716874e-01 
3.791954e-01 
3.884841e-01 
3.994455e-01 
4.119670e-01 
4.259342e-01 
4.412341e-01 
4.577578e-01 
4.754025e-01 
4.940719e-01 
5.136777e-01 
5.341392e-01 
5.553827e-01 
5.773412e-01 
5.999540e-01 
6.231658e-01 
6.469267e-01 
6.711912e-01 
6.959185e-01 
7.210712e-01 
7.466158e-01 
7.725216e-01 
7.987625e-01 
1.142132e+00 
1.113146e+00 
1.084255e+00 
1.055492e+00 
1.026871e+00 
9.984007e-01 
9.700916e-01 
9.419552e-01 
9.140037e-01 
8.862505e-01 
8.587107e-01 
8.314008e-01 
8.043395e-01 
7.775474e-01 
7.510470e-01 
7.248635e-01 
6.990243e-01 
6.735597e-01 
6.485027e-01 
6.238900e-01 
5.997622e-01 
5.761644e-01 
5.531466e-01 
5.307647e-01 
5.090808e-01 
4.881637e-01 
4.680902e-01 
4.489458e-01 
4.308230e-01 
4.138219e-01 
3.980499e-01 
3.836210e-01 
3.706533e-01 
3.592627e-01 
3.495610e-01 
3.416532e-01 
3.356315e-01 
3.315755e-01 
3.295602e-01 
3.307951e-01 
3.345594e-01 
3.404796e-01 
3.483909e-01 
3.581704e-01 
3.696950e-01 
3.828361e-01 
3.974638e-01 
4.134516e-01 
4.306790e-01 
4.490333e-01 
4.684113e-01 
4.887186e-01 
5.098700e-01 
5.317882e-01 
5.544039e-01 
5.776543e-01 
6.014831e-01 
6.258398e-01 
6.506787e-01 
6.759588e-01 
7.016433e-01 
7.276988e-01 
7.540953e-01 
7.808072e-01 
1.129508e+00 
1.100237e+00 
1.071051e+00 
1.041983e+00 
1.013043e+00 
9.842407e-01 
9.555859e-01 
9.270890e-01 
8.987615e-01 
8.706163e-01 
8.426676e-01 
8.149314e-01 
7.874254e-01 
7.601694e-01 
7.331853e-01 
7.064972e-01 
6.801317e-01 
6.541181e-01 
6.284891e-01 
6.032810e-01 
5.785341e-01 
5.542939e-01 
5.306111e-01 
5.075426e-01 
4.851522e-01 
4.635112e-01 
4.426998e-01 
4.228080e-01 
4.039350e-01 
3.861890e-01 
3.696878e-01 
3.545580e-01 
3.409326e-01 
3.289445e-01 
3.187234e-01 
3.103915e-01 
3.040548e-01 
2.998050e-01 
2.977290e-01 
2.990862e-01 
3.030709e-01 
3.093288e-01 
3.176888e-01 
3.280128e-01 
3.401587e-01 
3.539787e-01 
3.693251e-01 
3.860560e-01 
4.040381e-01 
4.231489e-01 
4.432771e-01 
4.643224e-01 
4.861949e-01 
5.088143e-01 
5.321089e-01 
5.560149e-01 
5.804751e-01 
6.054387e-01 
6.308602e-01 
6.566990e-01 
6.829188e-01 
7.094870e-01 
7.363744e-01 
7.635558e-01 
1.117545e+00 
1.087994e+00 
1.058522e+00 
1.029156e+00 
9.999063e-01 
9.707808e-01 
9.417886e-01 
9.129393e-01 
8.842438e-01 
8.557140e-01 
8.273635e-01 
7.992072e-01 
7.712621e-01 
7.435468e-01 
7.160821e-01 
6.888910e-01 
6.619990e-01 
6.354344e-01 
6.092291e-01 
5.834184e-01 
5.580424e-01 
5.331463e-01 
5.087810e-01 
4.850040e-01 
4.618805e-01 
4.394837e-01 
4.178967e-01 
3.972139e-01 
3.775408e-01 
3.589941e-01 
3.417027e-01 
3.258074e-01 
3.114578e-01 
2.988072e-01 
2.880075e-01 
2.792020e-01 
2.725138e-01 
2.680488e-01 
2.659083e-01 
2.673863e-01 
2.716105e-01 
2.782465e-01 
2.871098e-01 
2.980414e-01 
3.108759e-01 
3.254423e-01 
3.415724e-01 
3.591070e-01 
3.778991e-01 
3.978158e-01 
4.187373e-01 
4.405571e-01 
4.631812e-01 
4.865268e-01 
5.105207e-01 
5.350981e-01 
5.602017e-01 
5.857810e-01 
6.117910e-01 
6.381919e-01 
6.649482e-01 
6.920284e-01 
7.194044e-01 
7.470519e-01 
1.106193e+00 
1.076385e+00 
1.046640e+00 
1.016990e+00 
9.874434e-01 
9.580075e-01 
9.286906e-01 
8.995017e-01 
8.704506e-01 
8.415485e-01 
8.128079e-01 
7.842429e-01 
7.558690e-01 
7.277038e-01 
6.997667e-01 
6.720793e-01 
6.446659e-01 
6.175535e-01 
5.907726e-01 
5.643576e-01 
5.383475e-01 
5.127868e-01 
4.877260e-01 
4.632226e-01 
4.393421e-01 
4.161593e-01 
3.937596e-01 
3.722412e-01 
3.517156e-01 
3.323080e-01 
3.141592e-01 
2.974251e-01 
2.822753e-01 
2.688870e-01 
2.574392e-01 
2.481019e-01 
2.410190e-01 
2.363138e-01 
2.341049e-01 
2.356960e-01 
2.401828e-01 
2.472461e-01 
2.566776e-01 
2.682914e-01 
2.818931e-01 
2.972837e-01 
3.142708e-01 
3.326762e-01 
3.523381e-01 
3.731121e-01 
3.948704e-01 
4.175010e-01 
4.409065e-01 
4.650022e-01 
4.897139e-01 
5.149766e-01 
5.407336e-01 
5.669350e-01 
5.935369e-01 
6.205007e-01 
6.477924e-01 
6.753817e-01 
7.032418e-01 
7.313499e-01 
1.095631e+00 
1.065563e+00 
1.035555e+00 
1.005630e+00 
9.757963e-01 
9.460597e-01 
9.164280e-01 
8.869092e-01 
8.575123e-01 
8.282475e-01 
7.991262e-01 
7.701612e-01 
7.413668e-01 
7.127591e-01 
6.843560e-01 
6.561776e-01 
6.282465e-01 
6.005880e-01 
5.732312e-01 
5.462087e-01 
5.195584e-01 
4.933231e-01 
4.675522e-01 
4.423026e-01 
4.176394e-01 
3.936378e-01 
3.703849e-01 
3.479816e-01 
3.265448e-01 
3.062083e-01 
2.871248e-01 
2.694674e-01 
2.534281e-01 
2.392122e-01 
2.270323e-01 
2.170926e-01 
2.095633e-01 
2.045880e-01 
2.023066e-01 
2.040159e-01 
2.087959e-01 
2.163483e-01 
2.264271e-01 
2.388125e-01 
2.532734e-01 
2.695764e-01 
2.875016e-01 
3.068494e-01 
3.274422e-01 
3.491246e-01 
3.717615e-01 
3.952367e-01 
4.194504e-01 
4.443164e-01 
4.697604e-01 
4.957183e-01 
5.221343e-01 
5.489601e-01 
5.761534e-01 
6.036774e-01 
6.314996e-01 
6.595917e-01 
6.879284e-01 
7.164886e-01 
1.085835e+00 
1.055525e+00 
1.025266e+00 
9.950776e-01 
9.649681e-01 
9.349431e-01 
9.050089e-01 
8.751727e-01 
8.454426e-01 
8.158277e-01 
7.863382e-01 
7.569854e-01 
7.277824e-01 
6.987435e-01 
6.698850e-01 
6.412252e-01 
6.127848e-01 
5.845873e-01 
5.566596e-01 
5.290325e-01 
5.017415e-01 
4.748277e-01 
4.483385e-01 
4.223289e-01 
3.968628e-01 
3.720147e-01 
3.478719e-01 
3.245372e-01 
3.021316e-01 
2.807963e-01 
2.606959e-01 
2.420209e-01 
2.249878e-01 
2.098361e-01 
1.968208e-01 
1.861913e-01 
1.781517e-01 
1.728687e-01 
1.705086e-01 
1.723349e-01 
1.774419e-01 
1.855571e-01 
1.963767e-01 
2.096396e-01 
2.250674e-01 
2.423846e-01 
2.613391e-01 
2.817076e-01 
3.032963e-01 
3.259395e-01 
3.494962e-01 
3.738472e-01 
3.988912e-01 
4.245423e-01 
4.507275e-01 
4.773841e-01 
5.044587e-01 
5.319050e-01 
5.596832e-01 
5.877587e-01 
6.161012e-01 
6.446845e-01 
6.734853e-01 
7.024842e-01 
1.076801e+00 
1.046262e+00 
1.015765e+00 
9.853289e-01 
9.549591e-01 
9.246611e-01 
8.944404e-01 
8.643032e-01 
8.342566e-01 
8.043083e-01 
7.744674e-01 
7.447439e-01 
7.151490e-01 
6.856954e-01 
6.563977e-01 
6.272719e-01 
5.983368e-01 
5.696136e-01 
5.411267e-01 
5.129045e-01 
4.849797e-01 
4.573905e-01 
4.301815e-01 
4.034049e-01 
3.771220e-01 
3.514054e-01 
3.263409e-01 
3.020314e-01 
2.786001e-01 
2.561943e-01 
2.349889e-01 
2.151913e-01 
1.970447e-01 
1.808283e-01 
1.668522e-01 
1.554266e-01 
1.467993e-01 
1.411642e-01 
1.387193e-01 
1.406593e-01 
1.461361e-01 
1.549062e-01 
1.665802e-01 
1.808494e-01 
1.973730e-01 
2.158231e-01 
2.359098e-01 
2.573841e-01 
2.800365e-01 
3.036926e-01 
3.282076e-01 
3.534610e-01 
3.793526e-01 
4.057985e-01 
4.327281e-01 
4.600820e-01 
4.878096e-01 
5.158679e-01 
5.442200e-01 
5.728341e-01 
6.016826e-01 
6.307418e-01 
6.599907e-01 
6.894118e-01 
1.068554e+00 
1.037803e+00 
1.007083e+00 
9.764145e-01 
9.458011e-01 
9.152473e-01 
8.847578e-01 
8.543380e-01 
8.239937e-01 
7.937315e-01 
7.635590e-01 
7.334847e-01 
7.035182e-01 
6.736705e-01 
6.439538e-01 
6.143824e-01 
5.849723e-01 
5.557424e-01 
5.267142e-01 
4.979129e-01 
4.693680e-01 
4.411139e-01 
4.131914e-01 
3.856487e-01 
3.585431e-01 
3.319435e-01 
3.059326e-01 
2.806109e-01 
2.561012e-01 
2.325538e-01 
2.101514e-01 
1.891156e-01 
1.697160e-01 
1.522787e-01 
1.371851e-01 
1.248296e-01 
1.155180e-01 
1.094758e-01 
1.069393e-01 
1.089886e-01 
1.148891e-01 
1.244305e-01 
1.370987e-01 
1.525337e-01 
1.703083e-01 
1.900279e-01 
2.113587e-01 
2.340258e-01 
2.578069e-01 
2.825222e-01 
3.080263e-01 
3.342007e-01 
3.609488e-01 
3.881907e-01 
4.158603e-01 
4.439025e-01 
4.722708e-01 
5.009263e-01 
5.298355e-01 
5.589702e-01 
5.883058e-01 
6.178213e-01 
6.474985e-01 
6.773220e-01 
1.061118e+00 
1.030170e+00 
9.992459e-01 
9.683622e-01 
9.375233e-01 
9.067329e-01 
8.759947e-01 
8.453130e-01 
8.146924e-01 
7.841385e-01 
7.536574e-01 
7.232560e-01 
6.929422e-01 
6.627250e-01 
6.326146e-01 
6.026230e-01 
5.727637e-01 
5.430524e-01 
5.135077e-01 
4.841511e-01 
4.550081e-01 
4.261088e-01 
3.974889e-01 
3.691915e-01 
3.412685e-01 
3.137828e-01 
2.868116e-01 
2.604506e-01 
2.348191e-01 
2.100655e-01 
1.863743e-01 
1.639750e-01 
1.431611e-01 
1.243118e-01 
1.079009e-01 
9.444232e-02 
8.432336e-02 
7.780462e-02 
7.516891e-02 
7.732192e-02 
8.371429e-02 
9.417911e-02 
1.080176e-01 
1.248214e-01 
1.440353e-01 
1.651785e-01 
1.878703e-01 
2.118145e-01 
2.367813e-01 
2.625915e-01 
2.891038e-01 
3.162060e-01 
3.438079e-01 
3.718362e-01 
4.002310e-01 
4.289429e-01 
4.579310e-01 
4.871608e-01 
5.166034e-01 
5.462342e-01 
5.760323e-01 
6.059795e-01 
6.360604e-01 
6.662622e-01 
1.054522e+00 
1.023394e+00 
9.922823e-01 
9.612024e-01 
9.301579e-01 
8.991517e-01 
8.681864e-01 
8.372655e-01 
8.063926e-01 
7.755719e-01 
7.448081e-01 
7.141066e-01 
6.834736e-01 
6.529161e-01 
6.224424e-01 