# vtk DataFile Version 2.0 
Quadtree Mesh 
ASCII 
DATASET UNSTRUCTURED_GRID 
POINTS 4096 double 
-1.000000e+00 -1.000000e+00 0.000000e+00
-9.682540e-01 -1.000000e+00 0.000000e+00
-9.365079e-01 -1.000000e+00 0.000000e+00
-9.047619e-01 -1.000000e+00 0.000000e+00
-8.730159e-01 -1.000000e+00 0.000000e+00
-8.412698e-01 -1.000000e+00 0.000000e+00
-8.095238e-01 -1.000000e+00 0.000000e+00
-7.777778e-01 -1.000000e+00 0.000000e+00
-7.460317e-01 -1.000000e+00 0.000000e+00
-7.142857e-01 -1.000000e+00 0.000000e+00
-6.825397e-01 -1.000000e+00 0.000000e+00
-6.507937e-01 -1.000000e+00 0.000000e+00
-6.190476e-01 -1.000000e+00 0.000000e+00
-5.873016e-01 -1.000000e+00 0.000000e+00
-5.555556e-01 -1.000000e+00 0.000000e+00
-5.238095e-01 -1.000000e+00 0.000000e+00
-4.920635e-01 -1.000000e+00 0.000000e+00
-4.603175e-01 -1.000000e+00 0.000000e+00
-4.285714e-01 -1.000000e+00 0.000000e+00
-3.968254e-01 -1.000000e+00 0.000000e+00
-3.650794e-01 -1.000000e+00 0.000000e+00
-3.333333e-01 -1.000000e+00 0.000000e+00
-3.015873e-01 -1.000000e+00 0.000000e+00
-2.698413e-01 -1.000000e+00 0.000000e+00
-2.380952e-01 -1.000000e+00 0.000000e+00
-2.063492e-01 -1.000000e+00 0.000000e+00
-1.746032e-01 -1.000000e+00 0.000000e+00
-1.428571e-01 -1.000000e+00 0.000000e+00
-1.111111e-01 -1.000000e+00 0.000000e+00
-7.936508e-02 -1.000000e+00 0.000000e+00
-4.761905e-02 -1.000000e+00 0.000000e+00
-1.587302e-02 -1.000000e+00 0.000000e+00
1.587302e-02 -1.000000e+00 0.000000e+00
4.761905e-02 -1.000000e+00 0.000000e+00
7.936508e-02 -1.000000e+00 0.000000e+00
1.111111e-01 -1.000000e+00 0.000000e+00
1.428571e-01 -1.000000e+00 0.000000e+00
1.746032e-01 -1.000000e+00 0.000000e+00
2.063492e-01 -1.000000e+00 0.000000e+00
2.380952e-01 -1.000000e+00 0.000000e+00
2.698413e-01 -1.000000e+00 0.000000e+00
3.015873e-01 -1.000000e+00 0.000000e+00
3.333333e-01 -1.000000e+00 0.000000e+00
3.650794e-01 -1.000000e+00 0.000000e+00
3.968254e-01 -1.000000e+00 0.000000e+00
4.285714e-01 -1.000000e+00 0.000000e+00
4.603175e-01 -1.000000e+00 0.000000e+00
4.920635e-01 -1.000000e+00 0.000000e+00
5.238095e-01 -1.000000e+00 0.000000e+00
5.555556e-01 -1.000000e+00 0.000000e+00
5.873016e-01 -1.000000e+00 0.000000e+00
6.190476e-01 -1.000000e+00 0.000000e+00
6.507937e-01 -1.000000e+00 0.000000e+00
6.825397e-01 -1.000000e+00 0.000000e+00
7.142857e-01 -1.000000e+00 0.000000e+00
7.460317e-01 -1.000000e+00 0.000000e+00
7.777778e-01 -1.000000e+00 0.000000e+00
8.095238e-01 -1.000000e+00 0.000000e+00
8.412698e-01 -1.000000e+00 0.000000e+00
8.730159e-01 -1.000000e+00 0.000000e+00
9.047619e-01 -1.000000e+00 0.000000e+00
9.365079e-01 -1.000000e+00 0.000000e+00
9.682540e-01 -1.000000e+00 0.000000e+00
1.000000e+00 -1.000000e+00 0.000000e+00
-1.000000e+00 -9.682540e-01 0.000000e+00
-9.682540e-01 -9.682540e-01 0.000000e+00
-9.365079e-01 -9.682540e-01 0.000000e+00
-9.047619e-01 -9.682540e-01 0.000000e+00
-8.730159e-01 -9.682540e-01 0.000000e+00
-8.412698e-01 -9.682540e-01 0.000000e+00
-8.095238e-01 -9.682540e-01 0.000000e+00
-7.777778e-01 -9.682540e-01 0.000000e+00
-7.460317e-01 -9.682540e-01 0.000000e+00
-7.142857e-01 -9.682540e-01 0.000000e+00
-6.825397e-01 -9.682540e-01 0.000000e+00
-6.507937e-01 -9.682540e-01 0.000000e+00
-6.190476e-01 -9.682540e-01 0.000000e+00
-5.873016e-01 -9.682540e-01 0.000000e+00
-5.555556e-01 -9.682540e-01 0.000000e+00
-5.238095e-01 -9.682540e-01 0.000000e+00
-4.920635e-01 -9.682540e-01 0.000000e+00
-4.603175e-01 -9.682540e-01 0.000000e+00
-4.285714e-01 -9.682540e-01 0.000000e+00
-3.968254e-01 -9.682540e-01 0.000000e+00
-3.650794e-01 -9.682540e-01 0.000000e+00
-3.333333e-01 -9.682540e-01 0.000000e+00
-3.015873e-01 -9.682540e-01 0.000000e+00
-2.698413e-01 -9.682540e-01 0.000000e+00
-2.380952e-01 -9.682540e-01 0.000000e+00
-2.063492e-01 -9.682540e-01 0.000000e+00
-1.746032e-01 -9.682540e-01 0.000000e+00
-1.428571e-01 -9.682540e-01 0.000000e+00
-1.111111e-01 -9.682540e-01 0.000000e+00
-7.936508e-02 -9.682540e-01 0.000000e+00
-4.761905e-02 -9.682540e-01 0.000000e+00
-1.587302e-02 -9.682540e-01 0.000000e+00
1.587302e-02 -9.682540e-01 0.000000e+00
4.761905e-02 -9.682540e-01 0.000000e+00
7.936508e-02 -9.682540e-01 0.000000e+00
1.111111e-01 -9.682540e-01 0.000000e+00
1.428571e-01 -9.682540e-01 0.000000e+00
1.746032e-01 -9.682540e-01 0.000000e+00
2.063492e-01 -9.682540e-01 0.000000e+00
2.380952e-01 -9.682540e-01 0.000000e+00
2.698413e-01 -9.682540e-01 0.000000e+00
3.015873e-01 -9.682540e-01 0.000000e+00
3.333333e-01 -9.682540e-01 0.000000e+00
3.650794e-01 -9.682540e-01 0.000000e+00
3.968254e-01 -9.682540e-01 0.000000e+00
4.285714e-01 -9.682540e-01 0.000000e+00
4.603175e-01 -9.682540e-01 0.000000e+00
4.920635e-01 -9.682540e-01 0.000000e+00
5.238095e-01 -9.682540e-01 0.000000e+00
5.555556e-01 -9.682540e-01 0.000000e+00
5.873016e-01 -9.682540e-01 0.000000e+00
6.190476e-01 -9.682540e-01 0.000000e+00
6.507937e-01 -9.682540e-01 0.000000e+00
6.825397e-01 -9.682540e-01 0.000000e+00
7.142857e-01 -9.682540e-01 0.000000e+00
7.460317e-01 -9.682540e-01 0.000000e+00
7.777778e-01 -9.682540e-01 0.000000e+00
8.095238e-01 -9.682540e-01 0.000000e+00
8.412698e-01 -9.682540e-01 0.000000e+00
8.730159e-01 -9.682540e-01 0.000000e+00
9.047619e-01 -9.682540e-01 0.000000e+00
9.365079e-01 -9.682540e-01 0.000000e+00
9.682540e-01 -9.682540e-01 0.000000e+00
1.000000e+00 -9.682540e-01 0.000000e+00
-1.000000e+00 -9.365079e-01 0.000000e+00
-9.682540e-01 -9.365079e-01 0.000000e+00
-9.365079e-01 -9.365079e-01 0.000000e+00
-9.047619e-01 -9.365079e-01 0.000000e+00
-8.730159e-01 -9.365079e-01 0.000000e+00
-8.412698e-01 -9.365079e-01 0.000000e+00
-8.095238e-01 -9.365079e-01 0.000000e+00
-7.777778e-01 -9.365079e-01 0.000000e+00
-7.460317e-01 -9.365079e-01 0.000000e+00
-7.142857e-01 -9.365079e-01 0.000000e+00
-6.825397e-01 -9.365079e-01 0.000000e+00
-6.507937e-01 -9.365079e-01 0.000000e+00
-6.190476e-01 -9.365079e-01 0.000000e+00
-5.873016e-01 -9.365079e-01 0.000000e+00
-5.555556e-01 -9.365079e-01 0.000000e+00
-5.238095e-01 -9.365079e-01 0.000000e+00
-4.920635e-01 -9.365079e-01 0.000000e+00
-4.603175e-01 -9.365079e-01 0.000000e+00
-4.285714e-01 -9.365079e-01 0.000000e+00
-3.968254e-01 -9.365079e-01 0.000000e+00
-3.650794e-01 -9.365079e-01 0.000000e+00
-3.333333e-01 -9.365079e-01 0.000000e+00
-3.015873e-01 -9.365079e-01 0.000000e+00
-2.698413e-01 -9.365079e-01 0.000000e+00
-2.380952e-01 -9.365079e-01 0.000000e+00
-2.063492e-01 -9.365079e-01 0.000000e+00
-1.746032e-01 -9.365079e-01 0.000000e+00
-1.428571e-01 -9.365079e-01 0.000000e+00
-1.111111e-01 -9.365079e-01 0.000000e+00
-7.936508e-02 -9.365079e-01 0.000000e+00
-4.761905e-02 -9.365079e-01 0.000000e+00
-1.587302e-02 -9.365079e-01 0.000000e+00
1.587302e-02 -9.365079e-01 0.000000e+00
4.761905e-02 -9.365079e-01 0.000000e+00
7.936508e-02 -9.365079e-01 0.000000e+00
1.111111e-01 -9.365079e-01 0.000000e+00
1.428571e-01 -9.365079e-01 0.000000e+00
1.746032e-01 -9.365079e-01 0.000000e+00
2.063492e-01 -9.365079e-01 0.000000e+00
2.380952e-01 -9.365079e-01 0.000000e+00
2.698413e-01 -9.365079e-01 0.000000e+00
3.015873e-01 -9.365079e-01 0.000000e+00
3.333333e-01 -9.365079e-01 0.000000e+00
3.650794e-01 -9.365079e-01 0.000000e+00
3.968254e-01 -9.365079e-01 0.000000e+00
4.285714e-01 -9.365079e-01 0.000000e+00
4.603175e-01 -9.365079e-01 0.000000e+00
4.920635e-01 -9.365079e-01 0.000000e+00
5.238095e-01 -9.365079e-01 0.000000e+00
5.555556e-01 -9.365079e-01 0.000000e+00
5.873016e-01 -9.365079e-01 0.000000e+00
6.190476e-01 -9.365079e-01 0.000000e+00
6.507937e-01 -9.365079e-01 0.000000e+00
6.825397e-01 -9.365079e-01 0.000000e+00
7.142857e-01 -9.365079e-01 0.000000e+00
7.460317e-01 -9.365079e-01 0.000000e+00
7.777778e-01 -9.365079e-01 0.000000e+00
8.095238e-01 -9.365079e-01 0.000000e+00
8.412698e-01 -9.365079e-01 0.000000e+00
8.730159e-01 -9.365079e-01 0.000000e+00
9.047619e-01 -9.365079e-01 0.000000e+00
9.365079e-01 -9.365079e-01 0.000000e+00
9.682540e-01 -9.365079e-01 0.000000e+00
1.000000e+00 -9.365079e-01 0.000000e+00
-1.000000e+00 -9.047619e-01 0.000000e+00
-9.682540e-01 -9.047619e-01 0.000000e+00
-9.365079e-01 -9.047619e-01 0.000000e+00
-9.047619e-01 -9.047619e-01 0.000000e+00
-8.730159e-01 -9.047619e-01 0.000000e+00
-8.412698e-01 -9.047619e-01 0.000000e+00
-8.095238e-01 -9.047619e-01 0.000000e+00
-7.777778e-01 -9.047619e-01 0.000000e+00
-7.460317e-01 -9.047619e-01 0.000000e+00
-7.142857e-01 -9.047619e-01 0.000000e+00
-6.825397e-01 -9.047619e-01 0.000000e+00
-6.507937e-01 -9.047619e-01 0.000000e+00
-6.190476e-01 -9.047619e-01 0.000000e+00
-5.873016e-01 -9.047619e-01 0.000000e+00
-5.555556e-01 -9.047619e-01 0.000000e+00
-5.238095e-01 -9.047619e-01 0.000000e+00
-4.920635e-01 -9.047619e-01 0.000000e+00
-4.603175e-01 -9.047619e-01 0.000000e+00
-4.285714e-01 -9.047619e-01 0.000000e+00
-3.968254e-01 -9.047619e-01 0.000000e+00
-3.650794e-01 -9.047619e-01 0.000000e+00
-3.333333e-01 -9.047619e-01 0.000000e+00
-3.015873e-01 -9.047619e-01 0.000000e+00
-2.698413e-01 -9.047619e-01 0.000000e+00
-2.380952e-01 -9.047619e-01 0.000000e+00
-2.063492e-01 -9.047619e-01 0.000000e+00
-1.746032e-01 -9.047619e-01 0.000000e+00
-1.428571e-01 -9.047619e-01 0.000000e+00
-1.111111e-01 -9.047619e-01 0.000000e+00
-7.936508e-02 -9.047619e-01 0.000000e+00
-4.761905e-02 -9.047619e-01 0.000000e+00
-1.587302e-02 -9.047619e-01 0.000000e+00
1.587302e-02 -9.047619e-01 0.000000e+00
4.761905e-02 -9.047619e-01 0.000000e+00
7.936508e-02 -9.047619e-01 0.000000e+00
1.111111e-01 -9.047619e-01 0.000000e+00
1.428571e-01 -9.047619e-01 0.000000e+00
1.746032e-01 -9.047619e-01 0.000000e+00
2.063492e-01 -9.047619e-01 0.000000e+00
2.380952e-01 -9.047619e-01 0.000000e+00
2.698413e-01 -9.047619e-01 0.000000e+00
3.015873e-01 -9.047619e-01 0.000000e+00
3.333333e-01 -9.047619e-01 0.000000e+00
3.650794e-01 -9.047619e-01 0.000000e+00
3.968254e-01 -9.047619e-01 0.000000e+00
4.285714e-01 -9.047619e-01 0.000000e+00
4.603175e-01 -9.047619e-01 0.000000e+00
4.920635e-01 -9.047619e-01 0.000000e+00
5.238095e-01 -9.047619e-01 0.000000e+00
5.555556e-01 -9.047619e-01 0.000000e+00
5.873016e-01 -9.047619e-01 0.000000e+00
6.190476e-01 -9.047619e-01 0.000000e+00
[...]
POINT_DATA 4096 
SCALARS concentration double 1 
LOOKUP_TABLE default 
1.264576e+00 
1.246219e+00 
1.228340e+00 
1.210930e+00 
1.194004e+00 
1.177577e+00 
1.161668e+00 
1.146297e+00 
1.131482e+00 
1.117244e+00 
1.103602e+00 
1.090578e+00 
1.078190e+00 
1.066460e+00 
1.055412e+00 
1.045067e+00 
1.035445e+00 
1.026566e+00 
1.018451e+00 
1.011117e+00 
1.004584e+00 
9.988668e-01 
9.939826e-01 
9.899456e-01 
9.867685e-01 
9.844629e-01 
9.830389e-01 
9.824225e-01 
9.833329e-01 
9.855366e-01 
9.888402e-01 
9.931437e-01 
9.983837e-01 
1.004516e+00 
1.011510e+00 
1.019340e+00 
1.027982e+00 
1.037412e+00 
1.047610e+00 
1.058551e+00 
1.070215e+00 
1.082579e+00 
1.095620e+00 
1.109316e+00 
1.123644e+00 
1.138583e+00 
1.154111e+00 
1.170206e+00 
1.186846e+00 
1.204013e+00 
1.221684e+00 
1.239842e+00 
1.258465e+00 
1.277537e+00 
1.297039e+00 
1.316955e+00 
1.337268e+00 
1.357963e+00 
1.379024e+00 
1.400438e+00 
1.422191e+00 
1.444269e+00 
1.466659e+00 
1.489359e+00 
1.238685e+00 
1.220012e+00 
1.201815e+00 
1.184088e+00 
1.166844e+00 
1.150103e+00 
1.133882e+00 
1.118202e+00 
1.103084e+00 
1.088547e+00 
1.074613e+00 
1.061303e+00 
1.048638e+00 
1.036642e+00 
1.025338e+00 
1.014750e+00 
1.004898e+00 
9.958049e-01 
9.874911e-01 
9.799769e-01 
9.732817e-01 
9.674235e-01 
9.624194e-01 
9.582847e-01 
9.550334e-01 
9.526775e-01 
9.512249e-01 
9.506267e-01 
9.516268e-01 
9.539361e-01 
9.573596e-01 
9.617985e-01 
9.671906e-01 
9.734927e-01 
9.806739e-01 
9.887079e-01 
9.975701e-01 
1.007237e+00 
1.017685e+00 
1.028890e+00 
1.040829e+00 
1.053479e+00 
1.066814e+00 
1.080813e+00 
1.095451e+00 
1.110705e+00 
1.126552e+00 
1.142970e+00 
1.159937e+00 
1.177431e+00 
1.195431e+00 
1.213916e+00 
1.232868e+00 
1.252266e+00 
1.272094e+00 
1.292334e+00 
1.312969e+00 
1.333982e+00 
1.355360e+00 
1.377087e+00 
1.399149e+00 
1.421533e+00 
1.444226e+00 
1.467226e+00 
1.213026e+00 
1.194028e+00 
1.175505e+00 
1.157451e+00 
1.139882e+00 
1.122816e+00 
1.106273e+00 
1.090274e+00 
1.074840e+00 
1.059993e+00 
1.045755e+00 
1.032149e+00 
1.019196e+00 
1.006922e+00 
9.953511e-01 
9.845082e-01 
9.744162e-01 
9.650982e-01 
9.565764e-01 
9.488725e-01 
9.420074e-01 
9.360005e-01 
9.308701e-01 
9.266328e-01 
9.233034e-01 
9.208944e-01 
9.194119e-01 
9.188352e-01 
9.199288e-01 
9.223464e-01 
9.258934e-01 
9.304726e-01 
9.360231e-01 
9.425026e-01 
9.498799e-01 
9.581282e-01 
9.672219e-01 
9.771362e-01 
9.878462e-01 
9.993269e-01 
1.011553e+00 
1.024500e+00 
1.038143e+00 
1.052456e+00 
1.067415e+00 
1.082995e+00 
1.099173e+00 
1.115924e+00 
1.133227e+00 
1.151057e+00 
1.169394e+00 
1.188216e+00 
1.207504e+00 
1.227237e+00 
1.247397e+00 
1.267967e+00 
1.288929e+00 
1.310268e+00 
1.331967e+00 
1.354011e+00 
1.376387e+00 
1.399081e+00 
1.422080e+00 
1.445382e+00 
1.187613e+00 
1.168281e+00 
1.149423e+00 
1.131033e+00 
1.113128e+00 
1.095727e+00 
1.078851e+00 
1.062522e+00 
1.046762e+00 
1.031593e+00 
1.017039e+00 
1.003124e+00 
9.898709e-01 
9.773063e-01 
9.654569e-01 
9.543478e-01 
9.440040e-01 
9.344500e-01 
9.257097e-01 
9.178065e-01 
9.107627e-01 
9.045992e-01 
8.993357e-01 
8.949902e-01 
8.915785e-01 
8.891137e-01 
8.875999e-01 
8.870484e-01 
8.882390e-01 
8.907678e-01 
8.944420e-01 
8.991668e-01 
9.048826e-01 
9.115475e-01 
9.191303e-01 
9.276031e-01 
9.369394e-01 
9.471127e-01 
9.580969e-01 
9.698655e-01 
9.823918e-01 
9.956492e-01 
1.009611e+00 
1.024251e+00 
1.039543e+00 
1.055462e+00 
1.071981e+00 
1.089077e+00 
1.106725e+00 
1.124902e+00 
1.143585e+00 
1.162753e+00 
1.182385e+00 
1.202462e+00 
1.222963e+00 
1.243871e+00 
1.265168e+00 
1.286838e+00 
1.308865e+00 
1.331233e+00 
1.353929e+00 
1.376939e+00 
1.400249e+00 
1.423857e+00 
1.162456e+00 
1.142780e+00 
1.123577e+00 
1.104841e+00 
1.086590e+00 
1.068844e+00 
1.051624e+00 
1.034954e+00 
1.018855e+00 
1.003353e+00 
9.884707e-01 
9.742341e-01 
9.606684e-01 
9.478011e-01 
9.356601e-01 
9.242724e-01 
9.136646e-01 
9.038630e-01 
8.948932e-01 
8.867803e-01 
8.795483e-01 
8.732199e-01 
8.678161e-01 
8.633564e-01 
8.598579e-01 
8.573343e-01 
8.557879e-01 
8.552664e-01 
8.565574e-01 
8.592006e-01 
8.630065e-01 
8.678828e-01 
8.737713e-01 
8.806306e-01 
8.884290e-01 
8.971375e-01 
9.067282e-01 
9.171732e-01 
9.284446e-01 
9.405142e-01 
9.533536e-01 
9.669347e-01 
9.812291e-01 
9.962090e-01 
1.011847e+00 
1.028115e+00 
1.044988e+00 
1.062440e+00 
1.080445e+00 
1.098979e+00 
1.118018e+00 
1.137542e+00 
1.157527e+00 
1.177955e+00 
1.198805e+00 
1.220058e+00 
1.241697e+00 
1.263705e+00 
1.286066e+00 
1.308764e+00 
1.331785e+00 
1.355115e+00 
1.378742e+00 
1.402662e+00 
1.137560e+00 
1.117532e+00 
1.097975e+00 
1.078884e+00 
1.060277e+00 
1.042175e+00 
1.024601e+00 
1.007577e+00 
9.911286e-01 
9.752801e-01 
9.600573e-01 
9.454865e-01 
9.315950e-01 
9.184116e-01 
9.059658e-01 
8.942865e-01 
8.834019e-01 
8.733403e-01 
8.641292e-01 
8.557956e-01 
8.483654e-01 
8.418629e-01 
8.363112e-01 
8.317311e-01 
8.281411e-01 
8.255555e-01 
8.239749e-01 
8.234890e-01 
8.248843e-01 
8.276455e-01 
8.315880e-01 
8.366226e-01 
8.426924e-01 
8.497560e-01 
8.577810e-01 
8.667373e-01 
8.765954e-01 
8.873256e-01 
8.988981e-01 
9.112828e-01 
9.244496e-01 
9.383684e-01 
9.530093e-01 
9.683426e-01 
9.843393e-01 
1.000971e+00 
1.018209e+00 
1.036028e+00 
1.054401e+00 
1.073302e+00 
1.092708e+00 
1.112597e+00 
1.132945e+00 
1.153732e+00 
1.174939e+00 
1.196545e+00 
1.218532e+00 
1.240884e+00 
1.263584e+00 
1.286617e+00 
1.309969e+00 
1.333625e+00 
1.357573e+00 
1.381808e+00 
1.112940e+00 
1.092555e+00 
1.072636e+00 
1.053181e+00 
1.034208e+00 
1.015740e+00 
9.977992e-01 
9.804108e-01 
9.635998e-01 
9.473924e-01 
9.318155e-01 
9.168970e-01 
9.026658e-01 
8.891522e-01 
8.763874e-01 
8.644022e-01 
8.532270e-01 
8.428919e-01 
8.334267e-01 
8.248602e-01 
8.172206e-01 
8.105342e-01 
8.048258e-01 
8.001180e-01 
7.964309e-01 
7.937798e-01 
7.921632e-01 
7.917181e-01 
7.932202e-01 
7.961024e-01 
8.001867e-01 
8.053866e-01 
8.116467e-01 
8.189254e-01 
8.271892e-01 
8.364066e-01 
8.465462e-01 
8.575762e-01 
8.694649e-01 
8.821800e-01 
8.956894e-01 
9.099610e-01 
9.249631e-01 
9.406642e-01 
9.570336e-01 
9.740413e-01 
9.916582e-01 
1.009856e+00 
1.028608e+00 
1.047888e+00 
1.067672e+00 
1.087935e+00 
1.108655e+00 
1.129810e+00 
1.151380e+00 
1.173346e+00 
1.195689e+00 
1.218391e+00 
1.241437e+00 
1.264810e+00 
1.288496e+00 
1.312483e+00 
1.336756e+00 
1.361308e+00 
1.088645e+00 
1.067898e+00 
1.047607e+00 
1.027777e+00 
1.008427e+00 
9.895794e-01 
9.712598e-01 
9.534929e-01 
9.363053e-01 
9.197242e-01 
9.037781e-01 
8.884962e-01 
8.739089e-01 
8.600488e-01 
8.469489e-01 
8.346418e-01 
8.231601e-01 
8.125361e-01 
8.028018e-01 
7.939885e-01 
7.861264e-01 
7.792442e-01 
7.733689e-01 
7.685250e-01 
7.647341e-01 
7.620127e-01 
7.603574e-01 
7.599572e-01 
7.615659e-01 
7.645712e-01 
7.688017e-01 
7.741741e-01 
7.806338e-01 
7.881390e-01 
7.966548e-01 
8.061475e-01 
8.165835e-01 
8.279291e-01 
8.401500e-01 
8.532118e-01 
8.670800e-01 
8.817205e-01 
8.970994e-01 
9.131836e-01 
9.299403e-01 
9.473382e-01 
9.653468e-01 
9.839368e-01 
1.003080e+00 
1.022750e+00 
1.042922e+00 
1.063569e+00 
1.084670e+00 
1.106202e+00 
1.128145e+00 
1.150478e+00 
1.173182e+00 
1.196241e+00 
1.219638e+00 
1.243357e+00 
1.267384e+00 
1.291705e+00 
1.316305e+00 
1.341177e+00 
1.064712e+00 
1.043585e+00 
1.022910e+00 
1.002691e+00 
9.829503e-01 
9.637105e-01 
9.449972e-01 
9.268368e-01 
9.092569e-01 
8.922860e-01 
8.759541e-01 
8.602917e-01 
8.453311e-01 
8.311070e-01 
8.176545e-01 
8.050082e-01 
7.932030e-01 
7.822735e-01 
7.722543e-01 
7.631791e-01 
7.550807e-01 
7.479904e-01 
7.419372e-01 
7.369482e-01 
7.330468e-01 
7.302504e-01 
7.285542e-01 
7.282056e-01 
7.299221e-01 
7.330536e-01 
7.374363e-01 
7.429896e-01 
7.496597e-01 
7.574039e-01 
7.661854e-01 
7.759683e-01 
7.867167e-01 
7.983943e-01 
8.109642e-01 
8.243895e-01 
8.386334e-01 
8.536593e-01 
8.694312e-01 
8.859140e-01 
9.030730e-01 
9.208754e-01 
9.392893e-01 
9.582844e-01 
9.778315e-01 
9.979030e-01 
1.018473e+00 
1.039515e+00 
1.061006e+00 
1.082924e+00 
1.105247e+00 
1.127954e+00 
1.151029e+00 
1.174451e+00 
1.198206e+00 
1.222276e+00 
1.246648e+00 
1.271306e+00 
1.296237e+00 
1.321430e+00 
1.041067e+00 
1.019552e+00 
9.984846e-01 
9.778700e-01 
9.577293e-01 
9.380872e-01 
9.189698e-01 
9.004046e-01 
8.824203e-01 
8.650467e-01 
8.483153e-01 
8.322583e-01 
8.169098e-01 
8.023066e-01 
7.884857e-01 
7.754844e-01 
7.633397e-01 
7.520891e-01 
7.417699e-01 
7.324186e-01 
7.240707e-01 
7.167602e-01 
7.105191e-01 
7.053766e-01 
7.013584e-01 
6.984834e-01 
6.967449e-01 
6.964604e-01 
6.982881e-01 
7.015515e-01 
7.060948e-01 
7.118401e-01 
7.187333e-01 
7.267306e-01 
7.357934e-01 
7.458833e-01 
7.569617e-01 
7.689893e-01 
7.819264e-01 
7.957334e-01 
8.103707e-01 
8.257994e-01 
8.419812e-01 
8.588786e-01 
8.764554e-01 
8.946769e-01 
9.135102e-01 
9.329236e-01 
9.528870e-01 
9.733716e-01 
9.943502e-01 
1.015797e+00 
1.037688e+00 
1.059999e+00 
1.082710e+00 
1.105799e+00 
1.129249e+00 
1.153041e+00 
1.177158e+00 
1.201585e+00 
1.226304e+00 
1.251302e+00 
1.276564e+00 
1.302080e+00 
1.017773e+00 
9.958629e-01 
9.743948e-01 
9.533740e-01 
9.328227e-01 
9.127664e-01 
8.932321e-01 
8.742483e-01 
8.558449e-01 
8.380533e-01 
8.209062e-01 
8.044377e-01 
7.886839e-01 
7.736834e-01 
7.594759e-01 
7.461008e-01 
7.335983e-01 
7.220084e-01 
7.113715e-01 
7.017271e-01 
6.931140e-01 
6.855691e-01 
6.791275e-01 
6.738213e-01 
6.696787e-01 
6.667200e-01 
6.649374e-01 
6.647268e-01 
6.666646e-01 
6.700639e-01 
6.747757e-01 
6.807238e-01 
6.878540e-01 
6.961207e-01 
7.054827e-01 
7.158987e-01 
7.273268e-01 
7.397247e-01 
7.530494e-01 
7.672582e-01 
7.823088e-01 
7.981594e-01 
8.147694e-01 
8.320989e-01 
8.501101e-01 
8.687668e-01 
8.880345e-01 
9.078801e-01 
9.282724e-01 
9.491817e-01 
9.705800e-01 
9.924409e-01 
1.014739e+00 
1.037452e+00 
1.060558e+00 
1.084036e+00 
1.107867e+00 
1.132033e+00 
1.156516e+00 
1.181300e+00 
1.206368e+00 
1.231706e+00 
1.257299e+00 
1.283136e+00 
9.948535e-01 
9.725401e-01 
9.506618e-01 
9.292246e-01 
9.082516e-01 
8.877690e-01 
8.678047e-01 
8.483882e-01 
8.295508e-01 
8.113250e-01 
7.937453e-01 
7.768477e-01 
7.606701e-01 
7.452533e-01 
7.306394e-01 
7.168708e-01 
7.039903e-01 
6.920413e-01 
6.810674e-01 
6.711115e-01 
6.622158e-01 
6.544209e-01 
6.477652e-01 
6.422839e-01 
6.380082e-01 
6.349605e-01 
6.331324e-01 
6.330045e-01 
6.350515e-01 
6.385916e-01 
6.434808e-01 
6.496442e-01 
6.570265e-01 
6.655798e-01 
6.752600e-01 
6.860222e-01 
6.978211e-01 
7.106105e-01 
7.243442e-01 
7.389760e-01 
7.544604e-01 
7.707529e-01 
7.878099e-01 
8.055898e-01 
8.240527e-01 
8.431608e-01 
8.628779e-01 
8.831697e-01 
9.040037e-01 
9.253495e-01 
9.471781e-01 
9.694628e-01 
9.921781e-01 
1.015301e+00 
1.038809e+00 
1.062681e+00 
1.086899e+00 
1.111442e+00 
1.136294e+00 
1.161437e+00 
1.186855e+00 
1.212534e+00 
1.238460e+00 
1.264620e+00 
9.723313e-01 
9.496061e-01 
9.273085e-01 
9.054447e-01 
8.840388e-01 
8.631177e-01 
8.427100e-01 
8.228465e-01 
8.035594e-01 
7.848830e-01 
7.668531e-01 
7.495077e-01 
7.328868e-01 
7.170334e-01 
7.019922e-01 
6.878086e-01 
6.745286e-01 
6.621990e-01 
6.508670e-01 
6.405793e-01 
6.313821e-01 
6.233199e-01 
6.164348e-01 
6.107660e-01 
6.063478e-01 
6.032052e-01 
6.013306e-01 
6.012912e-01 
6.034484e-01 
6.071354e-01 
6.122125e-01 
6.186052e-01 
6.262565e-01 
6.351156e-01 
6.451348e-01 
6.562654e-01 
6.684578e-01 
6.816619e-01 
6.958275e-01 
7.109047e-01 
7.268448e-01 
7.435999e-01 
7.611241e-01 
7.793735e-01 
7.983060e-01 
8.178820e-01 
8.380638e-01 
8.588157e-01 
8.801043e-01 
9.018981e-01 
9.241677e-01 
9.468857e-01 
9.700267e-01 
9.935667e-01 
1.017484e+00 
1.041756e+00 
1.066364e+00 
1.091289e+00 
1.116511e+00 
1.142015e+00 
1.167784e+00 
1.193805e+00 
1.220063e+00 
1.246546e+00 
9.502296e-01 
9.270846e-01 
9.043587e-01 
8.820585e-01 
8.602085e-01 
8.388365e-01 
8.179721e-01 
7.976468e-01 
7.778941e-01 
7.587498e-01 
7.402514e-01 
7.224387e-01 
7.053540e-01 
6.890424e-01 
6.735516e-01 
6.589300e-01 
6.452272e-01 
6.324937e-01 
6.207806e-01 
6.101390e-01 
6.006194e-01 
5.922707e-01 
5.851396e-01 
5.792694e-01 
5.746982e-01 
5.714543e-01 
5.695325e-01 
5.695844e-01 
5.718547e-01 
5.756964e-01 
5.809734e-01 
5.876113e-01 
5.955504e-01 
6.047367e-01 
6.151180e-01 
6.266412e-01 
6.392520e-01 
6.528958e-01 
6.675179e-01 
6.830647e-01 
6.994835e-01 
7.167235e-01 
7.347361e-01 
7.534745e-01 
7.728950e-01 
7.929558e-01 
8.136176e-01 
8.348438e-01 
8.565997e-01 
8.788531e-01 
9.015741e-01 
9.247349e-01 
9.483097e-01 
9.722744e-01 
9.966061e-01 
1.021283e+00 
1.046285e+00 
1.071592e+00 
1.097187e+00 
1.123052e+00 
1.149174e+00 
1.175536e+00 
1.202126e+00 
1.228931e+00 
9.285748e-01 
9.050051e-01 
8.818423e-01 
8.590957e-01 
8.367907e-01 
8.149556e-01 
7.936208e-01 
7.728188e-01 
7.525843e-01 
7.329544e-01 
7.139683e-01 
6.956679e-01 
6.780976e-01 
6.613049e-01 
6.453404e-01 
6.302561e-01 
6.161051e-01 
6.029420e-01 
5.908225e-01 
5.798025e-01 
5.699372e-01 
5.612807e-01 
5.538848e-01 
5.477975e-01 
5.430617e-01 
5.397091e-01 
5.377384e-01 
5.378832e-01 
5.402707e-01 
5.442760e-01 
5.497668e-01 
5.566675e-01 
5.649156e-01 
5.744527e-01 
5.852217e-01 
5.971642e-01 
6.102206e-01 
6.243311e-01 
6.394364e-01 
6.554784e-01 
6.724006e-01 
6.901490e-01 
7.086718e-01 
7.279198e-01 
7.478469e-01 
7.684096e-01 
7.895672e-01 
8.112816e-01 
8.335174e-01 
8.562418e-01 
8.794243e-01 
9.030368e-01 
9.270531e-01 
9.514485e-01 
9.761994e-01 
1.001284e+00 
1.026681e+00 
1.052373e+00 
1.078341e+00 
1.104570e+00 
1.131043e+00 
1.157747e+00 
1.184668e+00 
1.211794e+00 
9.074202e-01 
8.834210e-01 
8.598120e-01 
8.366083e-01 
8.138363e-01 
7.915247e-01 
7.697046e-01 
7.484097e-01 
7.276755e-01 
7.075407e-01 
6.880460e-01 
6.692353e-01 
6.511552e-01 
6.338560e-01 
6.173913e-01 
6.018166e-01 
5.871890e-01 
5.735678e-01 
5.610134e-01 
5.495870e-01 
5.393496e-01 
5.303610e-01 
5.226787e-01 
5.163565e-01 
5.114423e-01 
5.079723e-01 
5.059493e-01 
5.061877e-01 
5.086973e-01 
5.128764e-01 
5.185962e-01 
5.257795e-01 
5.343600e-01 
5.442744e-01 
5.554594e-01 
5.678504e-01 
5.813821e-01 
5.959887e-01 
6.116057e-01 
6.281703e-01 
6.456221e-01 
6.639032e-01 
6.829589e-01 
7.027375e-01 
7.231904e-01 
7.442726e-01 
7.659417e-01 
7.881587e-01 
8.108871e-01 
8.340936e-01 
8.577473e-01 
8.818197e-01 
9.062839e-01 
9.311146e-01 
9.562881e-01 
9.817827e-01 
1.007578e+00 
1.033655e+00 
1.059997e+00 
1.086588e+00 
1.113412e+00 
1.140456e+00 
1.167706e+00 
1.195151e+00 
8.867981e-01 
8.623551e-01 
8.382895e-01 
8.146179e-01 
7.913668e-01 
7.685656e-01 
7.462459e-01 
7.244421e-01 
7.031909e-01 
6.825322e-01 
6.625083e-01 
6.431650e-01 
6.245511e-01 
6.067196e-01 
5.897275e-01 
5.736339e-01 
5.585004e-01 
5.443910e-01 
5.313718e-01 
5.195096e-01 
5.088719e-01 
4.995251e-01 
4.915332e-01 
4.849566e-01 
4.798492e-01 
4.762525e-01 
4.741716e-01 
4.744849e-01 
4.771165e-01 
4.814795e-01 
4.874453e-01 
4.949336e-01 
5.038731e-01 
5.141942e-01 
5.258267e-01 
5.386992e-01 
5.527392e-01 
5.678748e-01 
5.840355e-01 
6.011534e-01 
6.191636e-01 
6.380045e-01 
6.576182e-01 
6.779504e-01 
6.989504e-01 
7.205711e-01 
7.427690e-01 
7.655039e-01 
7.887389e-01 
8.124399e-01 
8.365755e-01 
8.611165e-01 
8.860357e-01 
9.113075e-01 
9.369084e-01 
9.628169e-01 
9.890130e-01 
1.015478e+00 
1.042196e+00 
1.069149e+00 
1.096325e+00 
1.123708e+00 
1.151288e+00 
1.179051e+00 
8.666453e-01 
8.417515e-01 
8.172260e-01 
7.930816e-01 
7.693450e-01 
7.460459e-01 
7.232165e-01 
7.008918e-01 
6.791096e-01 
6.579107e-01 
6.373393e-01 
6.174428e-01 
5.982725e-01 
5.798838e-01 
5.623372e-01 
5.456958e-01 
5.300259e-01 
5.153970e-01 
5.018809e-01 
4.895514e-01 
4.784831e-01 
4.687499e-01 
4.604236e-01 
4.535721e-01 
4.482563e-01 
4.445236e-01 
4.423835e-01 
4.427882e-01 
4.455552e-01 
4.501189e-01 
4.563531e-01 
4.641738e-01 
4.735031e-01 
4.842641e-01 
4.963790e-01 
5.097681e-01 
5.243513e-01 
5.400496e-01 
5.567862e-01 
5.744878e-01 
5.930848e-01 
6.125115e-01 
6.327067e-01 
6.536135e-01 
6.751789e-01 
6.973543e-01 
7.200951e-01 
7.433602e-01 
7.671119e-01 
7.913159e-01 
8.159400e-01 
8.409543e-01 
8.663315e-01 
8.920462e-01 
9.180754e-01 
9.443979e-01 
9.709941e-01 
9.978461e-01 
1.024937e+00 
1.052252e+00 
1.079776e+00 
1.107497e+00 
1.135402e+00 
1.163481e+00 
8.470428e-01 
8.216988e-01 
7.967079e-01 
7.720837e-01 
7.478531e-01 
7.240459e-01 
7.006949e-01 
6.778353e-01 
6.555060e-01 
6.337487e-01 
6.126091e-01 
5.921365e-01 
5.723843e-01 
5.534106e-01 
5.352793e-01 
5.180578e-01 
5.018174e-01 
4.866333e-01 
4.725842e-01 
4.597513e-01 
4.482174e-01 
4.380651e-01 
4.293752e-01 
4.222243e-01 
4.166814e-01 
4.128013e-01 
4.105977e-01 
4.110928e-01 
4.140033e-01 
4.187839e-01 
4.253103e-01 
4.334930e-01 
4.432468e-01 
4.544858e-01 
4.671228e-01 
4.810688e-01 
4.962349e-01 
5.125343e-01 
5.298832e-01 
5.482024e-01 
5.674172e-01 
5.874579e-01 
6.082598e-01 
6.297633e-01 
6.519137e-01 
6.746608e-01 
6.979588e-01 
7.217661e-01 
7.460444e-01 
7.707583e-01 
7.958754e-01 
8.213658e-01 
8.472025e-01 
8.733606e-01 
8.998174e-01 
9.265522e-01 
9.535459e-01 
9.807810e-01 
1.008241e+00 
1.035912e+00 
1.063780e+00 
1.091832e+00 
1.120057e+00 
1.148445e+00 
8.280274e-01 
8.022302e-01 
7.767694e-01 
7.516597e-01 
7.269276e-01 
7.026033e-01 
6.787194e-01 
6.553119e-01 
6.324199e-01 
6.100864e-01 
5.883580e-01 
5.672860e-01 
5.469257e-01 
5.273382e-01 
5.085904e-01 
4.907543e-01 
4.739065e-01 
4.581286e-01 
4.435066e-01 
4.301302e-01 
4.180915e-01 
4.074831e-01 
3.983965e-01 
3.909182e-01 
3.851271e-01 
3.810862e-01 
3.788144e-01 
3.793985e-01 
3.824618e-01 
3.874781e-01 
3.943239e-01 
4.029029e-01 
4.131203e-01 
4.248798e-01 
4.380829e-01 
4.526300e-01 
4.684221e-01 
4.853637e-01 
5.033635e-01 
5.223357e-01 
5.422004e-01 
5.628836e-01 
5.843175e-01 
6.064400e-01 
6.291944e-01 
6.525295e-01 
6.763984e-01 
7.007589e-01 
7.255719e-01 
7.508018e-01 
7.764163e-01 
8.023859e-01 
8.286840e-01 
8.552862e-01 
8.821703e-01 
9.093163e-01 
9.367055e-01 
9.643210e-01 
9.921473e-01 
1.020170e+00 
1.048377e+00 
1.076757e+00 
1.105297e+00 
1.133989e+00 
8.096333e-01 
7.833813e-01 
7.574478e-01 
7.318480e-01 
7.066085e-01 
6.817591e-01 
6.573325e-01 
6.333648e-01 
6.098956e-01 
5.869683e-01 
5.646309e-01 
5.429360e-01 
5.219411e-01 
5.017097e-01 
4.823121e-01 
4.638248e-01 
4.463300e-01 
4.299162e-01 
4.146775e-01 
4.007130e-01 
3.881254e-01 
3.770191e-01 
3.674977e-01 
3.596600e-01 
3.535961e-01 
3.493791e-01 
3.470341e-01 
3.477054e-01 
3.509323e-01 
3.562059e-01 
3.634027e-01 
3.724174e-01 
3.831433e-01 
3.954714e-01 
4.092903e-01 
4.244875e-01 
4.409530e-01 
4.585813e-01 
4.772730e-01 
4.969354e-01 
5.174831e-01 
5.388381e-01 
5.609293e-01 
5.836924e-01 
6.070691e-01 
6.310071e-01 
6.554590e-01 
6.803817e-01 
7.057360e-01 
7.314865e-01 
7.576013e-01 
7.840515e-01 
8.108112e-01 
8.378565e-01 
8.651661e-01 
8.927204e-01 
9.205015e-01 
9.484933e-01 
9.766813e-01 
1.005052e+00 
1.033594e+00 
1.062295e+00 
1.091145e+00 
1.120135e+00 
7.918971e-01 
7.651907e-01 
7.387831e-01 
7.126905e-01 
6.869391e-01 
6.615582e-01 
6.365804e-01 
6.120416e-01 
5.879815e-01 
5.644440e-01 
5.414778e-01 
5.191367e-01 
4.974802e-01 
4.765742e-01 
4.564921e-01 
4.373150e-01 
4.191309e-01 
4.020355e-01 
3.861317e-01 
3.715293e-01 
3.583431e-01 
3.466912e-01 
3.366913e-01 
3.284570e-01 
3.220917e-01 
3.176810e-01 
3.152571e-01 
3.160133e-01 
3.194161e-01 
3.249723e-01 
3.325573e-01 
3.420534e-01 
3.533395e-01 
3.662913e-01 
3.807817e-01 
3.966838e-01 
4.138747e-01 
4.322380e-01 
4.516651e-01 
4.720563e-01 
4.933210e-01 
5.153769e-01 
5.381502e-01 
5.615744e-01 
5.855903e-01 
6.101447e-01 
6.351894e-01 
6.606813e-01 
6.865815e-01 
7.128553e-01 
7.394715e-01 
7.664019e-01 
7.936213e-01 
8.211069e-01 
8.488380e-01 
8.767959e-01 
9.049637e-01 
9.333263e-01 
9.618700e-01 
9.905821e-01 
1.019451e+00 
1.048467e+00 
1.077620e+00 
1.106900e+00 
7.748598e-01 
7.477018e-01 
7.208206e-01 
6.942342e-01 
6.679682e-01 
6.420514e-01 
6.165156e-01 
5.913965e-01 
5.667334e-01 
5.425704e-01 
5.189567e-01 
4.959468e-01 
4.736020e-01 
4.519903e-01 
4.311881e-01 