# vtk DataFile Version 2.0 
Quadtree Mesh 
ASCII 
DATASET UNSTRUCTURED_GRID 
POINTS 4096 double 
-1.000000e+00 -1.000000e+00 0.000000e+00
-9.682540e-01 -1.000000e+00 0.000000e+00
-9.365079e-01 -1.000000e+00 0.000000e+00
-9.047619e-01 -1.000000e+00 0.000000e+00
-8.730159e-01 -1.000000e+00 0.000000e+00
-8.412698e-01 -1.000000e+00 0.000000e+00
-8.095238e-01 -1.000000e+00 0.000000e+00
-7.777778e-01 -1.000000e+00 0.000000e+00
-7.460317e-01 -1.000000e+00 0.000000e+00
-7.142857e-01 -1.000000e+00 0.000000e+00
-6.825397e-01 -1.000000e+00 0.000000e+00
-6.507937e-01 -1.000000e+00 0.000000e+00
-6.190476e-01 -1.000000e+00 0.000000e+00
-5.873016e-01 -1.000000e+00 0.000000e+00
-5.555556e-01 -1.000000e+00 0.000000e+00
-5.238095e-01 -1.000000e+00 0.000000e+00
-4.920635e-01 -1.000000e+00 0.000000e+00
-4.603175e-01 -1.000000e+00 0.000000e+00
-4.285714e-01 -1.000000e+00 0.000000e+00
-3.968254e-01 -1.000000e+00 0.000000e+00
-3.650794e-01 -1.000000e+00 0.000000e+00
-3.333333e-01 -1.000000e+00 0.000000e+00
-3.015873e-01 -1.000000e+00 0.000000e+00
-2.698413e-01 -1.000000e+00 0.000000e+00
-2.380952e-01 -1.000000e+00 0.000000e+00
-2.063492e-01 -1.000000e+00 0.000000e+00
-1.746032e-01 -1.000000e+00 0.000000e+00
-1.428571e-01 -1.000000e+00 0.000000e+00
-1.111111e-01 -1.000000e+00 0.000000e+00
-7.936508e-02 -1.000000e+00 0.000000e+00
-4.761905e-02 -1.000000e+00 0.000000e+00
-1.587302e-02 -1.000000e+00 0.000000e+00
1.587302e-02 -1.000000e+00 0.000000e+00
4.761905e-02 -1.000000e+00 0.000000e+00
7.936508e-02 -1.000000e+00 0.000000e+00
1.111111e-01 -1.000000e+00 0.000000e+00
1.428571e-01 -1.000000e+00 0.000000e+00
1.746032e-01 -1.000000e+00 0.000000e+00
2.063492e-01 -1.000000e+00 0.000000e+00
2.380952e-01 -1.000000e+00 0.000000e+00
2.698413e-01 -1.000000e+00 0.000000e+00
3.015873e-01 -1.000000e+00 0.000000e+00
3.333333e-01 -1.000000e+00 0.000000e+00
3.650794e-01 -1.000000e+00 0.000000e+00
3.968254e-01 -1.000000e+00 0.000000e+00
4.285714e-01 -1.000000e+00 0.000000e+00
4.603175e-01 -1.000000e+00 0.000000e+00
4.920635e-01 -1.000000e+00 0.000000e+00
5.238095e-01 -1.000000e+00 0.000000e+00
5.555556e-01 -1.000000e+00 0.000000e+00
5.873016e-01 -1.000000e+00 0.000000e+00
6.190476e-01 -1.000000e+00 0.000000e+00
6.507937e-01 -1.000000e+00 0.000000e+00
6.825397e-01 -1.000000e+00 0.000000e+00
7.142857e-01 -1.000000e+00 0.000000e+00
7.460317e-01 -1.000000e+00 0.000000e+00
7.777778e-01 -1.000000e+00 0.000000e+00
8.095238e-01 -1.000000e+00 0.000000e+00
8.412698e-01 -1.000000e+00 0.000000e+00
8.730159e-01 -1.000000e+00 0.000000e+00
9.047619e-01 -1.000000e+00 0.000000e+00
9.365079e-01 -1.000000e+00 0.000000e+00
9.682540e-01 -1.000000e+00 0.000000e+00
1.000000e+00 -1.000000e+00 0.000000e+00
-1.000000e+00 -9.682540e-01 0.000000e+00
-9.682540e-01 -9.682540e-01 0.000000e+00
-9.365079e-01 -9.682540e-01 0.000000e+00
-9.047619e-01 -9.682540e-01 0.000000e+00
-8.730159e-01 -9.682540e-01 0.000000e+00
-8.412698e-01 -9.682540e-01 0.000000e+00
-8.095238e-01 -9.682540e-01 0.000000e+00
-7.777778e-01 -9.682540e-01 0.000000e+00
-7.460317e-01 -9.682540e-01 0.000000e+00
-7.142857e-01 -9.682540e-01 0.000000e+00
-6.825397e-01 -9.682540e-01 0.000000e+00
-6.507937e-01 -9.682540e-01 0.000000e+00
-6.190476e-01 -9.682540e-01 0.000000e+00
-5.873016e-01 -9.682540e-01 0.000000e+00
-5.555556e-01 -9.682540e-01 0.000000e+00
-5.238095e-01 -9.682540e-01 0.000000e+00
-4.920635e-01 -9.682540e-01 0.000000e+00
-4.603175e-01 -9.682540e-01 0.000000e+00
-4.285714e-01 -9.682540e-01 0.000000e+00
-3.968254e-01 -9.682540e-01 0.000000e+00
-3.650794e-01 -9.682540e-01 0.000000e+00
-3.333333e-01 -9.682540e-01 0.000000e+00
-3.015873e-01 -9.682540e-01 0.000000e+00
-2.698413e-01 -9.682540e-01 0.000000e+00
-2.380952e-01 -9.682540e-01 0.000000e+00
-2.063492e-01 -9.682540e-01 0.000000e+00
-1.746032e-01 -9.682540e-01 0.000000e+00
-1.428571e-01 -9.682540e-01 0.000000e+00
-1.111111e-01 -9.682540e-01 0.000000e+00
-7.936508e-02 -9.682540e-01 0.000000e+00
-4.761905e-02 -9.682540e-01 0.000000e+00
-1.587302e-02 -9.682540e-01 0.000000e+00
1.587302e-02 -9.682540e-01 0.000000e+00
4.761905e-02 -9.682540e-01 0.000000e+00
7.936508e-02 -9.682540e-01 0.000000e+00
1.111111e-01 -9.682540e-01 0.000000e+00
1.428571e-01 -9.682540e-01 0.000000e+00
1.746032e-01 -9.682540e-01 0.000000e+00
2.063492e-01 -9.682540e-01 0.000000e+00
2.380952e-01 -9.682540e-01 0.000000e+00
2.698413e-01 -9.682540e-01 0.000000e+00
3.015873e-01 -9.682540e-01 0.000000e+00
3.333333e-01 -9.682540e-01 0.000000e+00
3.650794e-01 -9.682540e-01 0.000000e+00
3.968254e-01 -9.682540e-01 0.000000e+00
4.285714e-01 -9.682540e-01 0.000000e+00
4.603175e-01 -9.682540e-01 0.000000e+00
4.920635e-01 -9.682540e-01 0.000000e+00
5.238095e-01 -9.682540e-01 0.000000e+00
5.555556e-01 -9.682540e-01 0.000000e+00
5.873016e-01 -9.682540e-01 0.000000e+00
6.190476e-01 -9.682540e-01 0.000000e+00
6.507937e-01 -9.682540e-01 0.000000e+00
6.825397e-01 -9.682540e-01 0.000000e+00
7.142857e-01 -9.682540e-01 0.000000e+00
7.460317e-01 -9.682540e-01 0.000000e+00
7.777778e-01 -9.682540e-01 0.000000e+00
8.095238e-01 -9.682540e-01 0.000000e+00
8.412698e-01 -9.682540e-01 0.000000e+00
8.730159e-01 -9.682540e-01 0.000000e+00
9.047619e-01 -9.682540e-01 0.000000e+00
9.365079e-01 -9.682540e-01 0.000000e+00
9.682540e-01 -9.682540e-01 0.000000e+00
1.000000e+00 -9.682540e-01 0.000000e+00
-1.000000e+00 -9.365079e-01 0.000000e+00
-9.682540e-01 -9.365079e-01 0.000000e+00
-9.365079e-01 -9.365079e-01 0.000000e+00
-9.047619e-01 -9.365079e-01 0.000000e+00
-8.730159e-01 -9.365079e-01 0.000000e+00
-8.412698e-01 -9.365079e-01 0.000000e+00
-8.095238e-01 -9.365079e-01 0.000000e+00
-7.777778e-01 -9.365079e-01 0.000000e+00
-7.460317e-01 -9.365079e-01 0.000000e+00
-7.142857e-01 -9.365079e-01 0.000000e+00
-6.825397e-01 -9.365079e-01 0.000000e+00
-6.507937e-01 -9.365079e-01 0.000000e+00
-6.190476e-01 -9.365079e-01 0.000000e+00
-5.873016e-01 -9.365079e-01 0.000000e+00
-5.555556e-01 -9.365079e-01 0.000000e+00
-5.238095e-01 -9.365079e-01 0.000000e+00
-4.920635e-01 -9.365079e-01 0.000000e+00
-4.603175e-01 -9.365079e-01 0.000000e+00
-4.285714e-01 -9.365079e-01 0.000000e+00
-3.968254e-01 -9.365079e-01 0.000000e+00
-3.650794e-01 -9.365079e-01 0.000000e+00
-3.333333e-01 -9.365079e-01 0.000000e+00
-3.015873e-01 -9.365079e-01 0.000000e+00
-2.698413e-01 -9.365079e-01 0.000000e+00
-2.380952e-01 -9.365079e-01 0.000000e+00
-2.063492e-01 -9.365079e-01 0.000000e+00
-1.746032e-01 -9.365079e-01 0.000000e+00
-1.428571e-01 -9.365079e-01 0.000000e+00
-1.111111e-01 -9.365079e-01 0.000000e+00
-7.936508e-02 -9.365079e-01 0.000000e+00
-4.761905e-02 -9.365079e-01 0.000000e+00
-1.587302e-02 -9.365079e-01 0.000000e+00
1.587302e-02 -9.365079e-01 0.000000e+00
4.761905e-02 -9.365079e-01 0.000000e+00
7.936508e-02 -9.365079e-01 0.000000e+00
1.111111e-01 -9.365079e-01 0.000000e+00
1.428571e-01 -9.365079e-01 0.000000e+00
1.746032e-01 -9.365079e-01 0.000000e+00
2.063492e-01 -9.365079e-01 0.000000e+00
2.380952e-01 -9.365079e-01 0.000000e+00
2.698413e-01 -9.365079e-01 0.000000e+00
3.015873e-01 -9.365079e-01 0.000000e+00
3.333333e-01 -9.365079e-01 0.000000e+00
3.650794e-01 -9.365079e-01 0.000000e+00
3.968254e-01 -9.365079e-01 0.000000e+00
4.285714e-01 -9.365079e-01 0.000000e+00
4.603175e-01 -9.365079e-01 0.000000e+00
4.920635e-01 -9.365079e-01 0.000000e+00
5.238095e-01 -9.365079e-01 0.000000e+00
5.555556e-01 -9.365079e-01 0.000000e+00
5.873016e-01 -9.365079e-01 0.000000e+00
6.190476e-01 -9.365079e-01 0.000000e+00
6.507937e-01 -9.365079e-01 0.000000e+00
6.825397e-01 -9.365079e-01 0.000000e+00
7.142857e-01 -9.365079e-01 0.000000e+00
7.460317e-01 -9.365079e-01 0.000000e+00
7.777778e-01 -9.365079e-01 0.000000e+00
8.095238e-01 -9.365079e-01 0.000000e+00
8.412698e-01 -9.365079e-01 0.000000e+00
8.730159e-01 -9.365079e-01 0.000000e+00
9.047619e-01 -9.365079e-01 0.000000e+00
9.365079e-01 -9.365079e-01 0.000000e+00
9.682540e-01 -9.365079e-01 0.000000e+00
1.000000e+00 -9.365079e-01 0.000000e+00
-1.000000e+00 -9.047619e-01 0.000000e+00
-9.682540e-01 -9.047619e-01 0.000000e+00
-9.365079e-01 -9.047619e-01 0.000000e+00
-9.047619e-01 -9.047619e-01 0.000000e+00
-8.730159e-01 -9.047619e-01 0.000000e+00
-8.412698e-01 -9.047619e-01 0.000000e+00
-8.095238e-01 -9.047619e-01 0.000000e+00
-7.777778e-01 -9.047619e-01 0.000000e+00
-7.460317e-01 -9.047619e-01 0.000000e+00
-7.142857e-01 -9.047619e-01 0.000000e+00
-6.825397e-01 -9.047619e-01 0.000000e+00
-6.507937e-01 -9.047619e-01 0.000000e+00
-6.190476e-01 -9.047619e-01 0.000000e+00
-5.873016e-01 -9.047619e-01 0.000000e+00
-5.555556e-01 -9.047619e-01 0.000000e+00
-5.238095e-01 -9.047619e-01 0.000000e+00
-4.920635e-01 -9.047619e-01 0.000000e+00
-4.603175e-01 -9.047619e-01 0.000000e+00
-4.285714e-01 -9.047619e-01 0.000000e+00
-3.968254e-01 -9.047619e-01 0.000000e+00
-3.650794e-01 -9.047619e-01 0.000000e+00
-3.333333e-01 -9.047619e-01 0.000000e+00
-3.015873e-01 -9.047619e-01 0.000000e+00
-2.698413e-01 -9.047619e-01 0.000000e+00
-2.380952e-01 -9.047619e-01 0.000000e+00
-2.063492e-01 -9.047619e-01 0.000000e+00
-1.746032e-01 -9.047619e-01 0.000000e+00
-1.428571e-01 -9.047619e-01 0.000000e+00
-1.111111e-01 -9.047619e-01 0.000000e+00
-7.936508e-02 -9.047619e-01 0.000000e+00
-4.761905e-02 -9.047619e-01 0.000000e+00
-1.587302e-02 -9.047619e-01 0.000000e+00
1.587302e-02 -9.047619e-01 0.000000e+00
4.761905e-02 -9.047619e-01 0.000000e+00
7.936508e-02 -9.047619e-01 0.000000e+00
1.111111e-01 -9.047619e-01 0.000000e+00
1.428571e-01 -9.047619e-01 0.000000e+00
1.746032e-01 -9.047619e-01 0.000000e+00
2.063492e-01 -9.047619e-01 0.000000e+00
2.380952e-01 -9.047619e-01 0.000000e+00
2.698413e-01 -9.047619e-01 0.000000e+00
3.015873e-01 -9.047619e-01 0.000000e+00
3.333333e-01 -9.047619e-01 0.000000e+00
3.650794e-01 -9.047619e-01 0.000000e+00
3.968254e-01 -9.047619e-01 0.000000e+00
4.285714e-01 -9.047619e-01 0.000000e+00
4.603175e-01 -9.047619e-01 0.000000e+00
4.920635e-01 -9.047619e-01 0.000000e+00
5.238095e-01 -9.047619e-01 0.000000e+00
5.555556e-01 -9.047619e-01 0.000000e+00
5.873016e-01 -9.047619e-01 0.000000e+00
6.190476e-01 -9.047619e-01 0.000000e+00
[...]
POINT_DATA 4096 
SCALARS concentration double 1 
LOOKUP_TABLE default 
1.486409e+00 
1.464346e+00 
1.442573e+00 
1.421123e+00 
1.400003e+00 
1.379227e+00 
1.358808e+00 
1.338762e+00 
1.319101e+00 
1.299840e+00 
1.280993e+00 
1.262575e+00 
1.244601e+00 
1.227090e+00 
1.210058e+00 
1.193523e+00 
1.177503e+00 
1.162017e+00 
1.147084e+00 
1.132726e+00 
1.118962e+00 
1.105814e+00 
1.093302e+00 
1.081447e+00 
1.070269e+00 
1.059790e+00 
1.050030e+00 
1.041008e+00 
1.032745e+00 
1.025260e+00 
1.018570e+00 
1.012694e+00 
1.007649e+00 
1.003449e+00 
1.000105e+00 
9.976235e-01 
9.960145e-01 
9.952893e-01 
9.957366e-01 
9.974340e-01 
1.000299e+00 
1.004227e+00 
1.009131e+00 
1.014951e+00 
1.021644e+00 
1.029177e+00 
1.037525e+00 
1.046662e+00 
1.056566e+00 
1.067215e+00 
1.078586e+00 
1.090655e+00 
1.103400e+00 
1.116797e+00 
1.130825e+00 
1.145462e+00 
1.160687e+00 
1.176480e+00 
1.192820e+00 
1.209687e+00 
1.227061e+00 
1.244925e+00 
1.263259e+00 
1.282045e+00 
1.463629e+00 
1.441269e+00 
1.419195e+00 
1.397440e+00 
1.376011e+00 
1.354922e+00 
1.334188e+00 
1.313824e+00 
1.293844e+00 
1.274263e+00 
1.255096e+00 
1.236358e+00 
1.218066e+00 
1.200236e+00 
1.182886e+00 
1.166035e+00 
1.149702e+00 
1.133907e+00 
1.118669e+00 
1.104009e+00 
1.089950e+00 
1.076514e+00 
1.063722e+00 
1.051596e+00 
1.040159e+00 
1.029432e+00 
1.019437e+00 
1.010196e+00 
1.001730e+00 
9.940582e-01 
9.872011e-01 
9.811778e-01 
9.760071e-01 
9.717043e-01 
9.682793e-01 
9.657417e-01 
9.641013e-01 
9.633713e-01 
9.638728e-01 
9.656674e-01 
9.686540e-01 
9.727186e-01 
9.777736e-01 
9.837588e-01 
9.906325e-01 
9.983629e-01 
1.006923e+00 
1.016288e+00 
1.026434e+00 
1.037337e+00 
1.048973e+00 
1.061318e+00 
1.074347e+00 
1.088037e+00 
1.102364e+00 
1.117307e+00 
1.132842e+00 
1.148948e+00 
1.165604e+00 
1.182790e+00 
1.200485e+00 
1.218669e+00 
1.237324e+00 
1.256432e+00 
1.441154e+00 
1.418492e+00 
1.396115e+00 
1.374050e+00 
1.352307e+00 
1.330900e+00 
1.309844e+00 
1.289155e+00 
1.268849e+00 
1.248940e+00 
1.229444e+00 
1.210377e+00 
1.191755e+00 
1.173596e+00 
1.155919e+00 
1.138742e+00 
1.122085e+00 
1.105969e+00 
1.090414e+00 
1.075442e+00 
1.061077e+00 
1.047341e+00 
1.034257e+00 
1.021849e+00 
1.010141e+00 
9.991548e-01 
9.889149e-01 
9.794440e-01 
9.707644e-01 
9.628979e-01 
9.558654e-01 
9.496876e-01 
9.443845e-01 
9.399723e-01 
9.364622e-01 
9.338647e-01 
9.321906e-01 
9.314556e-01 
9.320151e-01 
9.339108e-01 
9.370219e-01 
9.412264e-01 
9.464358e-01 
9.525912e-01 
9.596521e-01 
9.675866e-01 
9.763673e-01 
9.859684e-01 
9.963645e-01 
1.007531e+00 
1.019442e+00 
1.032072e+00 
1.045396e+00 
1.059387e+00 
1.074023e+00 
1.089279e+00 
1.105132e+00 
1.121560e+00 
1.138540e+00 
1.156051e+00 
1.174072e+00 
1.192583e+00 
1.211564e+00 
1.230996e+00 
1.418986e+00 
1.396020e+00 
1.373334e+00 
1.350956e+00 
1.328895e+00 
1.307166e+00 
1.285783e+00 
1.264763e+00 
1.244122e+00 
1.223877e+00 
1.204044e+00 
1.184639e+00 
1.165679e+00 
1.147182e+00 
1.129167e+00 
1.111653e+00 
1.094661e+00 
1.078213e+00 
1.062330e+00 
1.047034e+00 
1.032351e+00 
1.018303e+00 
1.004915e+00 
9.922127e-01 
9.802208e-01 
9.689641e-01 
9.584676e-01 
9.487558e-01 
9.398526e-01 
9.317814e-01 
9.245647e-01 
9.182246e-01 
9.127823e-01 
9.082553e-01 
9.046559e-01 
9.019958e-01 
9.002869e-01 
8.995478e-01 
9.001703e-01 
9.021716e-01 
9.054107e-01 
9.097590e-01 
9.151279e-01 
9.214602e-01 
9.287160e-01 
9.368636e-01 
9.458747e-01 
9.557224e-01 
9.663798e-01 
9.778206e-01 
9.900181e-01 
1.002946e+00 
1.016575e+00 
1.030881e+00 
1.045836e+00 
1.061417e+00 
1.077598e+00 
1.094358e+00 
1.111671e+00 
1.129517e+00 
1.147872e+00 
1.166718e+00 
1.186033e+00 
1.205797e+00 
1.397139e+00 
1.373864e+00 
1.350867e+00 
1.328171e+00 
1.305788e+00 
1.283732e+00 
1.262017e+00 
1.240660e+00 
1.219679e+00 
1.199090e+00 
1.178911e+00 
1.159159e+00 
1.139851e+00 
1.121005e+00 
1.102642e+00 
1.084780e+00 
1.067443e+00 
1.050650e+00 
1.034426e+00 
1.018795e+00 
1.003780e+00 
9.894071e-01 
9.757029e-01 
9.626934e-01 
9.504053e-01 
9.388653e-01 
9.280998e-01 
9.181353e-01 
9.089974e-01 
9.007111e-01 
8.933008e-01 
8.867899e-01 
8.812012e-01 
8.765534e-01 
8.728603e-01 
8.701347e-01 
8.683899e-01 
8.676478e-01 
8.683390e-01 
8.704506e-01 
8.738217e-01 
8.783183e-01 
8.838527e-01 
8.903692e-01 
8.978288e-01 
9.061994e-01 
9.154517e-01 
9.255575e-01 
9.364884e-01 
9.482163e-01 
9.607129e-01 
9.739503e-01 
9.878985e-01 
1.002530e+00 
1.017817e+00 
1.033735e+00 
1.050257e+00 
1.067359e+00 
1.085016e+00 
1.103206e+00 
1.121907e+00 
1.141096e+00 
1.160752e+00 
1.180857e+00 
1.375625e+00 
1.352040e+00 
1.328727e+00 
1.305710e+00 
1.283000e+00 
1.260611e+00 
1.238559e+00 
1.216861e+00 
1.195532e+00 
1.174592e+00 
1.154059e+00 
1.133950e+00 
1.114284e+00 
1.095080e+00 
1.076357e+00 
1.058137e+00 
1.040441e+00 
1.023292e+00 
1.006715e+00 
9.907341e-01 
9.753748e-01 
9.606642e-01 
9.466298e-01 
9.332995e-01 
9.207016e-01 
9.088647e-01 
8.978172e-01 
8.875872e-01 
8.782025e-01 
8.696899e-01 
8.620755e-01 
8.553845e-01 
8.496415e-01 
8.448666e-01 
8.410748e-01 
8.382807e-01 
8.364989e-01 
8.357552e-01 
8.365211e-01 
8.387481e-01 
8.422556e-01 
8.469057e-01 
8.526121e-01 
8.593212e-01 
8.669943e-01 
8.755988e-01 
8.851042e-01 
8.954805e-01 
9.066978e-01 
9.187261e-01 
9.315353e-01 
9.450958e-01 
9.593762e-01 
9.743470e-01 
9.899796e-01 
1.006246e+00 
1.023121e+00 
1.040577e+00 
1.058590e+00 
1.077135e+00 
1.096190e+00 
1.115732e+00 
1.135740e+00 
1.156193e+00 
1.354459e+00 
1.330559e+00 
1.306927e+00 
1.283584e+00 
1.260543e+00 
1.237818e+00 
1.215424e+00 
1.193378e+00 
1.171696e+00 
1.150398e+00 
1.129502e+00 
1.109028e+00 
1.088994e+00 
1.069421e+00 
1.050328e+00 
1.031737e+00 
1.013671e+00 
9.961533e-01 
9.792093e-01 
9.628650e-01 
9.471475e-01 
9.320847e-01 
9.177058e-01 
9.040401e-01 
8.911180e-01 
8.789699e-01 
8.676262e-01 
8.571172e-01 
8.474725e-01 
8.387213e-01 
8.308915e-01 
8.240105e-01 
8.181044e-01 
8.131952e-01 
8.092995e-01 
8.064334e-01 
8.046131e-01 
8.038692e-01 
8.047163e-01 
8.070638e-01 
8.107122e-01 
8.155213e-01 
8.214072e-01 
8.283179e-01 
8.362151e-01 
8.450652e-01 
8.548362e-01 
8.654964e-01 
8.770139e-01 
8.893566e-01 
9.024927e-01 
9.163905e-01 
9.310172e-01 
9.463412e-01 
9.623324e-01 
9.789617e-01 
9.962012e-01 
1.014024e+00 
1.032403e+00 
1.051315e+00 
1.070735e+00 
1.090639e+00 
1.111007e+00 
1.131817e+00 
1.333654e+00 
1.309436e+00 
1.285482e+00 
1.261810e+00 
1.238434e+00 
1.215367e+00 
1.192626e+00 
1.170227e+00 
1.148187e+00 
1.126524e+00 
1.105258e+00 
1.084409e+00 
1.063997e+00 
1.044043e+00 
1.024568e+00 
1.005594e+00 
9.871448e-01 
9.692447e-01 
9.519199e-01 
9.351979e-01 
9.191071e-01 
9.036772e-01 
8.889385e-01 
8.749222e-01 
8.616605e-01 
8.491858e-01 
8.375309e-01 
8.267282e-01 
8.168097e-01 
8.078067e-01 
7.997496e-01 
7.926679e-01 
7.865895e-01 
7.815382e-01 
7.775327e-01 
7.745907e-01 
7.727304e-01 
7.719882e-01 
7.729246e-01 
7.753983e-01 
7.791927e-01 
7.841671e-01 
7.902409e-01 
7.973634e-01 
8.054963e-01 
8.146048e-01 
8.246551e-01 
8.356135e-01 
8.474458e-01 
8.601180e-01 
8.735959e-01 
8.878458e-01 
9.028334e-01 
9.185251e-01 
9.348888e-01 
9.518940e-01 
9.695114e-01 
9.877127e-01 
1.006471e+00 
1.025760e+00 
1.045554e+00 
1.065831e+00 
1.086568e+00 
1.107742e+00 
1.313225e+00 
1.288687e+00 
1.264407e+00 
1.240402e+00 
1.216686e+00 
1.193274e+00 
1.170180e+00 
1.147422e+00 
1.125017e+00 
1.102983e+00 
1.081339e+00 
1.060107e+00 
1.039308e+00 
1.018963e+00 
9.990956e-01 
9.797275e-01 
9.608833e-01 
9.425886e-01 
9.248707e-01 
9.077580e-01 
8.912807e-01 
8.754696e-01 
8.603568e-01 
8.459752e-01 
8.323589e-01 
8.195426e-01 
8.075615e-01 
7.964504e-01 
7.862438e-01 
7.769755e-01 
7.686785e-01 
7.613846e-01 
7.551239e-01 
7.499223e-01 
7.458008e-01 
7.427789e-01 
7.408764e-01 
7.401360e-01 
7.411548e-01 
7.437522e-01 
7.476949e-01 
7.528410e-01 
7.591118e-01 
7.664579e-01 
7.748400e-01 
7.842220e-01 
7.945678e-01 
8.058412e-01 
8.180057e-01 
8.310248e-01 
8.448621e-01 
8.594817e-01 
8.748472e-01 
8.909229e-01 
9.076751e-01 
9.250716e-01 
9.430819e-01 
9.616763e-01 
9.808265e-01 
1.000506e+00 
1.020688e+00 
1.041349e+00 
1.062465e+00 
1.084014e+00 
1.293190e+00 
1.268328e+00 
1.243719e+00 
1.219379e+00 
1.195320e+00 
1.171557e+00 
1.148107e+00 
1.124984e+00 
1.102208e+00 
1.079796e+00 
1.057768e+00 
1.036145e+00 
1.014949e+00 
9.942024e-01 
9.739294e-01 
9.541539e-01 
9.349008e-01 
9.161968e-01 
8.980703e-01 
8.805509e-01 
8.636699e-01 
8.474601e-01 
8.319551e-01 
8.171898e-01 
8.032004e-01 
7.900239e-01 
7.776980e-01 
7.662603e-01 
7.557479e-01 
7.461977e-01 
7.376453e-01 
7.301252e-01 
7.236705e-01 
7.183095e-01 
7.140652e-01 
7.109593e-01 
7.090138e-01 
7.082794e-01 
7.093970e-01 
7.121287e-01 
7.162279e-01 
7.215548e-01 
7.280339e-01 
7.356167e-01 
7.442628e-01 
7.539340e-01 
7.645918e-01 
7.761973e-01 
7.887114e-01 
8.020950e-01 
8.163092e-01 
8.313156e-01 
8.470756e-01 
8.635514e-01 
8.807078e-01 
8.985111e-01 
9.169288e-01 
9.359302e-01 
9.554859e-01 
9.755676e-01 
9.961490e-01 
1.017205e+00 
1.038711e+00 
1.060645e+00 
1.273560e+00 
1.248375e+00 
1.223435e+00 
1.198756e+00 
1.174350e+00 
1.150234e+00 
1.126421e+00 
1.102930e+00 
1.079777e+00 
1.056980e+00 
1.034561e+00 
1.012539e+00 
9.909369e-01 
9.697789e-01 
9.490895e-01 
9.288942e-01 
9.092191e-01 
8.900917e-01 
8.715414e-01 
8.535991e-01 
8.362978e-01 
8.196716e-01 
8.037564e-01 
7.885892e-01 
7.742082e-01 
7.606528e-01 
7.479633e-01 
7.361804e-01 
7.253444e-01 
7.154950e-01 
7.066711e-01 
6.989104e-01 
6.922487e-01 
6.867171e-01 
6.823413e-01 
6.791453e-01 
6.771535e-01 
6.764267e-01 
6.776486e-01 
6.805186e-01 
6.847794e-01 
6.902950e-01 
6.969932e-01 
7.048256e-01 
7.137505e-01 
7.237268e-01 
7.347132e-01 
7.466680e-01 
7.595490e-01 
7.733141e-01 
7.879219e-01 
8.033314e-01 
8.195017e-01 
8.363929e-01 
8.539679e-01 
8.721911e-01 
8.910287e-01 
9.104485e-01 
9.304199e-01 
9.509137e-01 
9.719027e-01 
9.933607e-01 
1.015263e+00 
1.037588e+00 
1.254355e+00 
1.228844e+00 
1.203572e+00 
1.178551e+00 
1.153796e+00 
1.129322e+00 
1.105143e+00 
1.081277e+00 
1.057742e+00 
1.034555e+00 
1.011736e+00 
9.893080e-01 
9.672920e-01 
9.457127e-01 
9.245959e-01 
9.039683e-01 
8.838576e-01 
8.642924e-01 
8.453031e-01 
8.269219e-01 
8.091831e-01 
7.921227e-01 
7.757784e-01 
7.601897e-01 
7.453971e-01 
7.314426e-01 
7.183694e-01 
7.062212e-01 
6.950419e-01 
6.848746e-01 
6.757617e-01 
6.677443e-01 
6.608616e-01 
6.551478e-01 
6.506314e-01 
6.473394e-01 
6.452987e-01 
6.445825e-01 
6.459147e-01 
6.489269e-01 
6.533555e-01 
6.590696e-01 
6.659999e-01 
6.740975e-01 
6.833182e-01 
6.936181e-01 
7.049526e-01 
7.172764e-01 
7.305441e-01 
7.447105e-01 
7.597312e-01 
7.755625e-01 
7.921610e-01 
8.094847e-01 
8.274944e-01 
8.461528e-01 
8.654245e-01 
8.852759e-01 
9.056752e-01 
9.265923e-01 
9.479990e-01 
9.698685e-01 
9.921758e-01 
1.014897e+00 
1.235589e+00 
1.209753e+00 
1.184147e+00 
1.158783e+00 
1.133676e+00 
1.108840e+00 
1.084292e+00 
1.060047e+00 
1.036124e+00 
1.012540e+00 
9.893162e-01 
9.664738e-01 
9.440355e-01 
9.220258e-01 
9.004712e-01 
8.793993e-01 
8.588395e-01 
8.388217e-01 
8.193777e-01 
8.005409e-01 
7.823469e-01 
7.648334e-01 
7.480404e-01 
7.320094e-01 
7.167839e-01 
7.024086e-01 
6.889296e-01 
6.763944e-01 
6.648503e-01 
6.543446e-01 
6.449233e-01 
6.366316e-01 
6.295123e-01 
6.236033e-01 
6.189364e-01 
6.155416e-01 
6.134489e-01 
6.127467e-01 
6.141948e-01 
6.173532e-01 
6.219567e-01 
6.278806e-01 
6.350577e-01 
6.434377e-01 
6.529734e-01 
6.636173e-01 
6.753209e-01 
6.880353e-01 
7.017113e-01 
7.163003e-01 
7.317545e-01 
7.480276e-01 
7.650734e-01 
7.828475e-01 
8.013088e-01 
8.204183e-01 
8.401388e-01 
8.604354e-01 
8.812752e-01 
9.026270e-01 
9.244618e-01 
9.467522e-01 
9.694726e-01 
9.925991e-01 
1.217280e+00 
1.191118e+00 
1.165177e+00 
1.139469e+00 
1.114008e+00 
1.088809e+00 
1.063887e+00 
1.039259e+00 
1.014943e+00 
9.909576e-01 
9.673222e-01 
9.440587e-01 
9.211901e-01 
8.987413e-01 
8.767388e-01 
8.552114e-01 
8.341893e-01 
8.137044e-01 
7.937897e-01 
7.744800e-01 
7.558123e-01 
7.378261e-01 
7.205634e-01 
7.040683e-01 
6.883870e-01 
6.735674e-01 
6.596591e-01 
6.467130e-01 
6.347809e-01 
6.239141e-01 
6.141632e-01 
6.055776e-01 
5.982044e-01 
5.920856e-01 
5.872570e-01 
5.837520e-01 
5.816039e-01 
5.809191e-01 
5.824883e-01 
5.857968e-01 
5.905836e-01 
5.967303e-01 
6.041707e-01 
6.128523e-01 
6.227241e-01 
6.337344e-01 
6.458304e-01 
6.589587e-01 
6.730663e-01 
6.881006e-01 
7.040104e-01 
7.207463e-01 
7.382592e-01 
7.565026e-01 
7.754330e-01 
7.950095e-01 
8.151937e-01 
8.359492e-01 
8.572418e-01 
8.790396e-01 
9.013126e-01 
9.240329e-01 
9.471745e-01 
9.707129e-01 
1.199443e+00 
1.172955e+00 
1.146678e+00 
1.120624e+00 
1.094809e+00 
1.069245e+00 
1.043948e+00 
1.018934e+00 
9.942218e-01 
9.698293e-01 
9.457768e-01 
9.220858e-01 
8.987796e-01 
8.758833e-01 
8.534237e-01 
8.314300e-01 
8.099332e-01 
7.889667e-01 
7.685651e-01 
7.487648e-01 
7.296043e-01 
7.111249e-01 
6.933707e-01 
6.763883e-01 
6.602270e-01 
6.449379e-01 
6.305746e-01 
6.171922e-01 
6.048466e-01 
5.935940e-01 
5.834900e-01 
5.745890e-01 
5.669429e-01 
5.605982e-01 
5.555952e-01 
5.519716e-01 
5.497640e-01 
5.491001e-01 
5.507943e-01 
5.542572e-01 
5.592372e-01 
5.656216e-01 
5.733441e-01 
5.823488e-01 
5.925802e-01 
6.039817e-01 
6.164954e-01 
6.300632e-01 
6.446274e-01 
6.601315e-01 
6.765205e-01 
6.937413e-01 
7.117423e-01 
7.304742e-01 
7.498917e-01 
7.699518e-01 
7.906146e-01 
8.118423e-01 
8.335999e-01 
8.558545e-01 
8.785754e-01 
9.017341e-01 
9.253041e-01 
9.492609e-01 
1.182099e+00 
1.155283e+00 
1.128670e+00 
1.102271e+00 
1.076100e+00 
1.050170e+00 
1.024497e+00 
9.990951e-01 
9.739834e-01 
9.491803e-01 
9.247058e-01 
9.005816e-01 
8.768309e-01 
8.534791e-01 
8.305532e-01 
8.080826e-01 
7.860992e-01 
7.646371e-01 
7.437324e-01 
7.234232e-01 
7.037500e-01 
6.847561e-01 
6.664876e-01 
6.489939e-01 
6.323271e-01 
6.165421e-01 
6.016967e-01 
5.878503e-01 
5.750638e-01 
5.633987e-01 
5.529161e-01 
5.436761e-01 
5.357360e-01 
5.291474e-01 
5.239562e-01 
5.202047e-01 
5.179330e-01 
5.172924e-01 
5.191118e-01 
5.227343e-01 
5.279197e-01 
5.345594e-01 
5.425855e-01 
5.519377e-01 
5.625551e-01 
5.743754e-01 
5.873351e-01 
6.013707e-01 
6.164194e-01 
6.324200e-01 
6.493136e-01 
6.670434e-01 
6.855549e-01 
7.047961e-01 
7.247194e-01 
7.452802e-01 
7.664369e-01 
7.881508e-01 
8.103857e-01 
8.331078e-01 
8.562860e-01 
8.798913e-01 
9.038969e-01 
9.282778e-01 
1.165289e+00 
1.138145e+00 
1.111195e+00 
1.084450e+00 
1.057921e+00 
1.031623e+00 
1.005570e+00 
9.797774e-01 
9.542626e-01 
9.290442e-01 
9.041424e-01 
8.795786e-01 
8.553762e-01 
8.315605e-01 
8.081588e-01 
7.852007e-01 
7.627184e-01 
7.407465e-01 
7.193225e-01 
6.984862e-01 
6.782804e-01 
6.587501e-01 
6.399438e-01 
6.219134e-01 
6.047142e-01 
5.884052e-01 
5.730483e-01 
5.587078e-01 
5.454501e-01 
5.333424e-01 
5.224525e-01 
5.128469e-01 
5.045891e-01 
4.977369e-01 
4.923422e-01 
4.884526e-01 
4.861121e-01 
4.854977e-01 
4.874417e-01 
4.912320e-01 
4.966380e-01 
5.035538e-01 
5.119084e-01 
5.216361e-01 
5.326696e-01 
5.449402e-01 
5.583777e-01 
5.729127e-01 
5.884768e-01 
6.050037e-01 
6.224302e-01 
6.406957e-01 
6.597421e-01 
6.795152e-01 
6.999651e-01 
7.210455e-01 
7.427135e-01 
7.649291e-01 
7.876551e-01 
8.108573e-01 
8.345039e-01 
8.585656e-01 
8.830152e-01 
9.078279e-01 
1.149008e+00 
1.121538e+00 
1.094254e+00 
1.067164e+00 
1.040280e+00 
1.013615e+00 
9.871831e-01 
9.609992e-01 
9.350803e-01 
9.094448e-01 
8.841124e-01 
8.591048e-01 
8.344451e-01 
8.101585e-01 
7.862726e-01 
7.628169e-01 
7.398239e-01 
7.173287e-01 
6.953698e-01 
6.739883e-01 
6.532287e-01 
6.331385e-01 
6.137686e-01 
5.951736e-01 
5.774124e-01 
5.605476e-01 
5.446459e-01 
5.297770e-01 
5.160133e-01 
5.034289e-01 
4.920986e-01 
4.820966e-01 
4.734939e-01 
4.663555e-01 
4.607399e-01 
4.567010e-01 
4.542869e-01 
4.537065e-01 
4.557849e-01 
4.597551e-01 
4.653994e-01 
4.726146e-01 
4.813253e-01 
4.914591e-01 
5.029415e-01 
5.156957e-01 
5.296448e-01 
5.447124e-01 
5.608238e-01 
5.779077e-01 
5.958957e-01 
6.147235e-01 
6.343294e-01 
6.546568e-01 
6.756540e-01 
6.972730e-01 
7.194693e-01 
7.422019e-01 
7.654331e-01 
7.891279e-01 
8.132543e-01 
8.377826e-01 
8.626858e-01 
8.879388e-01 
1.133279e+00 
1.105489e+00 
1.077875e+00 
1.050443e+00 
1.023205e+00 
9.961738e-01 
9.693634e-01 
9.427884e-01 
9.164650e-01 
8.904109e-01 
8.646458e-01 
8.391908e-01 
8.140690e-01 
7.893055e-01 
7.649277e-01 
7.409652e-01 
7.174508e-01 
6.944198e-01 
6.719112e-01 
6.499673e-01 
6.286340e-01 
6.079611e-01 
5.880019e-01 
5.688141e-01 
5.504599e-01 
5.330061e-01 
5.165244e-01 
5.010904e-01 
4.867834e-01 
4.736851e-01 
4.618784e-01 
4.514459e-01 
4.424673e-01 
4.350159e-01 
4.291582e-01 
4.249556e-01 
4.224603e-01 
4.219167e-01 
4.241330e-01 
4.282929e-01 
4.341941e-01 
4.417337e-01 
4.508303e-01 
4.614030e-01 
4.733685e-01 
4.866417e-01 
5.011371e-01 
5.167707e-01 
5.334613e-01 
5.511315e-01 
5.697082e-01 
5.891226e-01 
6.093097e-01 
6.302106e-01 
6.517714e-01 
6.739426e-01 
6.966786e-01 
7.199375e-01 
7.436808e-01 
7.678734e-01 
7.924830e-01 
8.174799e-01 
8.428370e-01 
8.685295e-01 
1.118126e+00 
1.090021e+00 
1.062079e+00 
1.034309e+00 
1.006720e+00 
9.793254e-01 
9.521384e-01 
9.251733e-01 
8.984459e-01 
8.719732e-01 
8.457742e-01 
8.198696e-01 
7.942823e-01 
7.690370e-01 
7.441608e-01 
7.196834e-01 
6.956375e-01 
6.720586e-01 
6.489860e-01 
6.264629e-01 
6.045363e-01 
5.832577e-01 
5.626832e-01 
5.428733e-01 
5.238938e-01 
5.058159e-01 
4.887165e-01 
4.726778e-01 
4.577865e-01 
4.441329e-01 
4.318094e-01 
4.209082e-01 
4.115193e-01 
4.037254e-01 
3.976023e-01 
3.932207e-01 
3.906368e-01 
3.901338e-01 
3.924911e-01 
3.968541e-01 
4.030352e-01 
4.109294e-01 
4.204469e-01 
4.314968e-01 
4.439857e-01 
4.578182e-01 
4.728997e-01 
4.891376e-01 
5.064433e-01 
5.247331e-01 
5.439286e-01 
5.639566e-01 
5.847491e-01 
6.062447e-01 
6.283875e-01 
6.511266e-01 
6.744153e-01 
6.982111e-01 
7.224752e-01 
7.471723e-01 
7.722699e-01 
7.977388e-01 
8.235519e-01 
8.496847e-01 
1.103571e+00 
1.075156e+00 
1.046892e+00 
1.018787e+00 
9.908514e-01 
9.630970e-01 
9.355365e-01 
9.081839e-01 
8.810542e-01 
8.541640e-01 
8.275314e-01 
8.011765e-01 
7.751216e-01 
7.493910e-01 
7.240114e-01 
6.990123e-01 
6.744260e-01 
6.502882e-01 
6.266382e-01 
6.035198e-01 
5.809808e-01 
5.590741e-01 
5.378579e-01 
5.173958e-01 
4.977574e-01 
4.790182e-01 
4.612608e-01 
4.445742e-01 
4.290534e-01 
4.147985e-01 
4.019126e-01 
3.904995e-01 
3.806607e-01 
3.724905e-01 
3.660755e-01 
3.614975e-01 
3.588167e-01 
3.583580e-01 
3.608603e-01 
3.654422e-01 
3.719302e-01 
3.802140e-01 
3.901927e-01 
4.017636e-01 
4.148210e-01 
4.292581e-01 
4.449695e-01 
4.618532e-01 
4.798126e-01 
4.987571e-01 
5.186032e-01 
5.392729e-01 
5.606954e-01 
5.828069e-01 
6.055499e-01 
6.288720e-01 
6.527260e-01 
6.770688e-01 
7.018616e-01 
7.270691e-01 
7.526591e-01 
7.786025e-01 
8.048730e-01 
8.314463e-01 
1.089637e+00 
1.060918e+00 
1.032338e+00 
1.003904e+00 
9.756274e-01 
9.475182e-01 
9.195888e-01 
8.918523e-01 
8.643234e-01 
8.370180e-01 
8.099535e-01 
7.831491e-01 
7.566262e-01 
7.304084e-01 
7.045220e-01 
6.789958e-01 
6.538618e-01 
6.291554e-01 
6.049160e-01 
5.811871e-01 
5.580174e-01 
5.354608e-01 
5.135771e-01 
4.924325e-01 
4.721002e-01 
4.526607e-01 
4.342022e-01 
4.168208e-01 
4.006209e-01 
3.857132e-01 
3.722134e-01 
3.602390e-01 
3.499052e-01 
3.413196e-01 
3.345819e-01 
3.297875e-01 
3.270007e-01 
3.265895e-01 
3.292413e-01 
3.340609e-01 
3.408875e-01 
3.496012e-01 
3.600874e-01 
3.722291e-01 
3.859061e-01 
4.009983e-01 
4.173878e-01 
4.349624e-01 
4.536166e-01 
4.732530e-01 
4.937822e-01 
5.151222e-01 
5.371993e-01 
5.599476e-01 
5.833081e-01 
6.072275e-01 
6.316580e-01 
6.565566e-01 
6.818846e-01 
7.076069e-01 
7.336919e-01 
7.601112e-01 
7.868387e-01 
8.138512e-01 
1.076344e+00 
1.047330e+00 
1.018441e+00 
9.896858e-01 
9.610744e-01 
9.326167e-01 
9.043241e-01 
8.762091e-01 
8.482858e-01 
8.205692e-01 
7.930759e-01 
7.658244e-01 
7.388349e-01 
7.121303e-01 
6.857357e-01 