# vtk DataFile Version 2.0 
Quadtree Mesh 
ASCII 
DATASET UNSTRUCTURED_GRID 
POINTS 4096 double 
-1.000000e+00 -1.000000e+00 0.000000e+00
-9.682540e-01 -1.000000e+00 0.000000e+00
-9.365079e-01 -1.000000e+00 0.000000e+00
-9.047619e-01 -1.000000e+00 0.000000e+00
-8.730159e-01 -1.000000e+00 0.000000e+00
-8.412698e-01 -1.000000e+00 0.000000e+00
-8.095238e-01 -1.000000e+00 0.000000e+00
-7.777778e-01 -1.000000e+00 0.000000e+00
-7.460317e-01 -1.000000e+00 0.000000e+00
-7.142857e-01 -1.000000e+00 0.000000e+00
-6.825397e-01 -1.000000e+00 0.000000e+00
-6.507937e-01 -1.000000e+00 0.000000e+00
-6.190476e-01 -1.000000e+00 0.000000e+00
-5.873016e-01 -1.000000e+00 0.000000e+00
-5.555556e-01 -1.000000e+00 0.000000e+00
-5.238095e-01 -1.000000e+00 0.000000e+00
-4.920635e-01 -1.000000e+00 0.000000e+00
-4.603175e-01 -1.000000e+00 0.000000e+00
-4.285714e-01 -1.000000e+00 0.000000e+00
-3.968254e-01 -1.000000e+00 0.000000e+00
-3.650794e-01 -1.000000e+00 0.000000e+00
-3.333333e-01 -1.000000e+00 0.000000e+00
-3.015873e-01 -1.000000e+00 0.000000e+00
-2.698413e-01 -1.000000e+00 0.000000e+00
-2.380952e-01 -1.000000e+00 0.000000e+00
-2.063492e-01 -1.000000e+00 0.000000e+00
-1.746032e-01 -1.000000e+00 0.000000e+00
-1.428571e-01 -1.000000e+00 0.000000e+00
-1.111111e-01 -1.000000e+00 0.000000e+00
-7.936508e-02 -1.000000e+00 0.000000e+00
-4.761905e-02 -1.000000e+00 0.000000e+00
-1.587302e-02 -1.000000e+00 0.000000e+00
1.587302e-02 -1.000000e+00 0.000000e+00
4.761905e-02 -1.000000e+00 0.000000e+00
7.936508e-02 -1.000000e+00 0.000000e+00
1.111111e-01 -1.000000e+00 0.000000e+00
1.428571e-01 -1.000000e+00 0.000000e+00
1.746032e-01 -1.000000e+00 0.000000e+00
2.063492e-01 -1.000000e+00 0.000000e+00
2.380952e-01 -1.000000e+00 0.000000e+00
2.698413e-01 -1.000000e+00 0.000000e+00
3.015873e-01 -1.000000e+00 0.000000e+00
3.333333e-01 -1.000000e+00 0.000000e+00
3.650794e-01 -1.000000e+00 0.000000e+00
3.968254e-01 -1.000000e+00 0.000000e+00
4.285714e-01 -1.000000e+00 0.000000e+00
4.603175e-01 -1.000000e+00 0.000000e+00
4.920635e-01 -1.000000e+00 0.000000e+00
5.238095e-01 -1.000000e+00 0.000000e+00
5.555556e-01 -1.000000e+00 0.000000e+00
5.873016e-01 -1.000000e+00 0.000000e+00
6.190476e-01 -1.000000e+00 0.000000e+00
6.507937e-01 -1.000000e+00 0.000000e+00
6.825397e-01 -1.000000e+00 0.000000e+00
7.142857e-01 -1.000000e+00 0.000000e+00
7.460317e-01 -1.000000e+00 0.000000e+00
7.777778e-01 -1.000000e+00 0.000000e+00
8.095238e-01 -1.000000e+00 0.000000e+00
8.412698e-01 -1.000000e+00 0.000000e+00
8.730159e-01 -1.000000e+00 0.000000e+00
9.047619e-01 -1.000000e+00 0.000000e+00
9.365079e-01 -1.000000e+00 0.000000e+00
9.682540e-01 -1.000000e+00 0.000000e+00
1.000000e+00 -1.000000e+00 0.000000e+00
-1.000000e+00 -9.682540e-01 0.000000e+00
-9.682540e-01 -9.682540e-01 0.000000e+00
-9.365079e-01 -9.682540e-01 0.000000e+00
-9.047619e-01 -9.682540e-01 0.000000e+00
-8.730159e-01 -9.682540e-01 0.000000e+00
-8.412698e-01 -9.682540e-01 0.000000e+00
-8.095238e-01 -9.682540e-01 0.000000e+00
-7.777778e-01 -9.682540e-01 0.000000e+00
-7.460317e-01 -9.682540e-01 0.000000e+00
-7.142857e-01 -9.682540e-01 0.000000e+00
-6.825397e-01 -9.682540e-01 0.000000e+00
-6.507937e-01 -9.682540e-01 0.000000e+00
-6.190476e-01 -9.682540e-01 0.000000e+00
-5.873016e-01 -9.682540e-01 0.000000e+00
-5.555556e-01 -9.682540e-01 0.000000e+00
-5.238095e-01 -9.682540e-01 0.000000e+00
-4.920635e-01 -9.682540e-01 0.000000e+00
-4.603175e-01 -9.682540e-01 0.000000e+00
-4.285714e-01 -9.682540e-01 0.000000e+00
-3.968254e-01 -9.682540e-01 0.000000e+00
-3.650794e-01 -9.682540e-01 0.000000e+00
-3.333333e-01 -9.682540e-01 0.000000e+00
-3.015873e-01 -9.682540e-01 0.000000e+00
-2.698413e-01 -9.682540e-01 0.000000e+00
-2.380952e-01 -9.682540e-01 0.000000e+00
-2.063492e-01 -9.682540e-01 0.000000e+00
-1.746032e-01 -9.682540e-01 0.000000e+00
-1.428571e-01 -9.682540e-01 0.000000e+00
-1.111111e-01 -9.682540e-01 0.000000e+00
-7.936508e-02 -9.682540e-01 0.000000e+00
-4.761905e-02 -9.682540e-01 0.000000e+00
-1.587302e-02 -9.682540e-01 0.000000e+00
1.587302e-02 -9.682540e-01 0.000000e+00
4.761905e-02 -9.682540e-01 0.000000e+00
7.936508e-02 -9.682540e-01 0.000000e+00
1.111111e-01 -9.682540e-01 0.000000e+00
1.428571e-01 -9.682540e-01 0.000000e+00
1.746032e-01 -9.682540e-01 0.000000e+00
2.063492e-01 -9.682540e-01 0.000000e+00
2.380952e-01 -9.682540e-01 0.000000e+00
2.698413e-01 -9.682540e-01 0.000000e+00
3.015873e-01 -9.682540e-01 0.000000e+00
3.333333e-01 -9.682540e-01 0.000000e+00
3.650794e-01 -9.682540e-01 0.000000e+00
3.968254e-01 -9.682540e-01 0.000000e+00
4.285714e-01 -9.682540e-01 0.000000e+00
4.603175e-01 -9.682540e-01 0.000000e+00
4.920635e-01 -9.682540e-01 0.000000e+00
5.238095e-01 -9.682540e-01 0.000000e+00
5.555556e-01 -9.682540e-01 0.000000e+00
5.873016e-01 -9.682540e-01 0.000000e+00
6.190476e-01 -9.682540e-01 0.000000e+00
6.507937e-01 -9.682540e-01 0.000000e+00
6.825397e-01 -9.682540e-01 0.000000e+00
7.142857e-01 -9.682540e-01 0.000000e+00
7.460317e-01 -9.682540e-01 0.000000e+00
7.777778e-01 -9.682540e-01 0.000000e+00
8.095238e-01 -9.682540e-01 0.000000e+00
8.412698e-01 -9.682540e-01 0.000000e+00
8.730159e-01 -9.682540e-01 0.000000e+00
9.047619e-01 -9.682540e-01 0.000000e+00
9.365079e-01 -9.682540e-01 0.000000e+00
9.682540e-01 -9.682540e-01 0.000000e+00
1.000000e+00 -9.682540e-01 0.000000e+00
-1.000000e+00 -9.365079e-01 0.000000e+00
-9.682540e-01 -9.365079e-01 0.000000e+00
-9.365079e-01 -9.365079e-01 0.000000e+00
-9.047619e-01 -9.365079e-01 0.000000e+00
-8.730159e-01 -9.365079e-01 0.000000e+00
-8.412698e-01 -9.365079e-01 0.000000e+00
-8.095238e-01 -9.365079e-01 0.000000e+00
-7.777778e-01 -9.365079e-01 0.000000e+00
-7.460317e-01 -9.365079e-01 0.000000e+00
-7.142857e-01 -9.365079e-01 0.000000e+00
-6.825397e-01 -9.365079e-01 0.000000e+00
-6.507937e-01 -9.365079e-01 0.000000e+00
-6.190476e-01 -9.365079e-01 0.000000e+00
-5.873016e-01 -9.365079e-01 0.000000e+00
-5.555556e-01 -9.365079e-01 0.000000e+00
-5.238095e-01 -9.365079e-01 0.000000e+00
-4.920635e-01 -9.365079e-01 0.000000e+00
-4.603175e-01 -9.365079e-01 0.000000e+00
-4.285714e-01 -9.365079e-01 0.000000e+00
-3.968254e-01 -9.365079e-01 0.000000e+00
-3.650794e-01 -9.365079e-01 0.000000e+00
-3.333333e-01 -9.365079e-01 0.000000e+00
-3.015873e-01 -9.365079e-01 0.000000e+00
-2.698413e-01 -9.365079e-01 0.000000e+00
-2.380952e-01 -9.365079e-01 0.000000e+00
-2.063492e-01 -9.365079e-01 0.000000e+00
-1.746032e-01 -9.365079e-01 0.000000e+00
-1.428571e-01 -9.365079e-01 0.000000e+00
-1.111111e-01 -9.365079e-01 0.000000e+00
-7.936508e-02 -9.365079e-01 0.000000e+00
-4.761905e-02 -9.365079e-01 0.000000e+00
-1.587302e-02 -9.365079e-01 0.000000e+00
1.587302e-02 -9.365079e-01 0.000000e+00
4.761905e-02 -9.365079e-01 0.000000e+00
7.936508e-02 -9.365079e-01 0.000000e+00
1.111111e-01 -9.365079e-01 0.000000e+00
1.428571e-01 -9.365079e-01 0.000000e+00
1.746032e-01 -9.365079e-01 0.000000e+00
2.063492e-01 -9.365079e-01 0.000000e+00
2.380952e-01 -9.365079e-01 0.000000e+00
2.698413e-01 -9.365079e-01 0.000000e+00
3.015873e-01 -9.365079e-01 0.000000e+00
3.333333e-01 -9.365079e-01 0.000000e+00
3.650794e-01 -9.365079e-01 0.000000e+00
3.968254e-01 -9.365079e-01 0.000000e+00
4.285714e-01 -9.365079e-01 0.000000e+00
4.603175e-01 -9.365079e-01 0.000000e+00
4.920635e-01 -9.365079e-01 0.000000e+00
5.238095e-01 -9.365079e-01 0.000000e+00
5.555556e-01 -9.365079e-01 0.000000e+00
5.873016e-01 -9.365079e-01 0.000000e+00
6.190476e-01 -9.365079e-01 0.000000e+00
6.507937e-01 -9.365079e-01 0.000000e+00
6.825397e-01 -9.365079e-01 0.000000e+00
7.142857e-01 -9.365079e-01 0.000000e+00
7.460317e-01 -9.365079e-01 0.000000e+00
7.777778e-01 -9.365079e-01 0.000000e+00
8.095238e-01 -9.365079e-01 0.000000e+00
8.412698e-01 -9.365079e-01 0.000000e+00
8.730159e-01 -9.365079e-01 0.000000e+00
9.047619e-01 -9.365079e-01 0.000000e+00
9.365079e-01 -9.365079e-01 0.000000e+00
9.682540e-01 -9.365079e-01 0.000000e+00
1.000000e+00 -9.365079e-01 0.000000e+00
-1.000000e+00 -9.047619e-01 0.000000e+00
-9.682540e-01 -9.047619e-01 0.000000e+00
-9.365079e-01 -9.047619e-01 0.000000e+00
-9.047619e-01 -9.047619e-01 0.000000e+00
-8.730159e-01 -9.047619e-01 0.000000e+00
-8.412698e-01 -9.047619e-01 0.000000e+00
-8.095238e-01 -9.047619e-01 0.000000e+00
-7.777778e-01 -9.047619e-01 0.000000e+00
-7.460317e-01 -9.047619e-01 0.000000e+00
-7.142857e-01 -9.047619e-01 0.000000e+00
-6.825397e-01 -9.047619e-01 0.000000e+00
-6.507937e-01 -9.047619e-01 0.000000e+00
-6.190476e-01 -9.047619e-01 0.000000e+00
-5.873016e-01 -9.047619e-01 0.000000e+00
-5.555556e-01 -9.047619e-01 0.000000e+00
-5.238095e-01 -9.047619e-01 0.000000e+00
-4.920635e-01 -9.047619e-01 0.000000e+00
-4.603175e-01 -9.047619e-01 0.000000e+00
-4.285714e-01 -9.047619e-01 0.000000e+00
-3.968254e-01 -9.047619e-01 0.000000e+00
-3.650794e-01 -9.047619e-01 0.000000e+00
-3.333333e-01 -9.047619e-01 0.000000e+00
-3.015873e-01 -9.047619e-01 0.000000e+00
-2.698413e-01 -9.047619e-01 0.000000e+00
-2.380952e-01 -9.047619e-01 0.000000e+00
-2.063492e-01 -9.047619e-01 0.000000e+00
-1.746032e-01 -9.047619e-01 0.000000e+00
-1.428571e-01 -9.047619e-01 0.000000e+00
-1.111111e-01 -9.047619e-01 0.000000e+00
-7.936508e-02 -9.047619e-01 0.000000e+00
-4.761905e-02 -9.047619e-01 0.000000e+00
-1.587302e-02 -9.047619e-01 0.000000e+00
1.587302e-02 -9.047619e-01 0.000000e+00
4.761905e-02 -9.047619e-01 0.000000e+00
7.936508e-02 -9.047619e-01 0.000000e+00
1.111111e-01 -9.047619e-01 0.000000e+00
1.428571e-01 -9.047619e-01 0.000000e+00
1.746032e-01 -9.047619e-01 0.000000e+00
2.063492e-01 -9.047619e-01 0.000000e+00
2.380952e-01 -9.047619e-01 0.000000e+00
2.698413e-01 -9.047619e-01 0.000000e+00
3.015873e-01 -9.047619e-01 0.000000e+00
3.333333e-01 -9.047619e-01 0.000000e+00
3.650794e-01 -9.047619e-01 0.000000e+00
3.968254e-01 -9.047619e-01 0.000000e+00
4.285714e-01 -9.047619e-01 0.000000e+00
4.603175e-01 -9.047619e-01 0.000000e+00
4.920635e-01 -9.047619e-01 0.000000e+00
5.238095e-01 -9.047619e-01 0.000000e+00
5.555556e-01 -9.047619e-01 0.000000e+00
5.873016e-01 -9.047619e-01 0.000000e+00
6.190476e-01 -9.047619e-01 0.000000e+00
[...]
POINT_DATA 4096 
SCALARS concentration double 1 
LOOKUP_TABLE default 
1.313937e+00 
1.295348e+00 
1.277212e+00 
1.259524e+00 
1.242294e+00 
1.225540e+00 
1.209277e+00 
1.193525e+00 
1.178301e+00 
1.163623e+00 
1.149510e+00 
1.135981e+00 
1.123055e+00 
1.110756e+00 
1.099102e+00 
1.088115e+00 
1.077815e+00 
1.068219e+00 
1.059349e+00 
1.051221e+00 
1.043855e+00 
1.037266e+00 
1.031472e+00 
1.026488e+00 
1.022326e+00 
1.019001e+00 
1.016522e+00 
1.014901e+00 
1.014035e+00 
1.014538e+00 
1.016395e+00 
1.019362e+00 
1.023324e+00 
1.028216e+00 
1.033996e+00 
1.040635e+00 
1.048107e+00 
1.056391e+00 
1.065464e+00 
1.075304e+00 
1.085889e+00 
1.097197e+00 
1.109205e+00 
1.121891e+00 
1.135233e+00 
1.149209e+00 
1.163796e+00 
1.178973e+00 
1.194717e+00 
1.211010e+00 
1.227829e+00 
1.245156e+00 
1.262973e+00 
1.281260e+00 
1.300001e+00 
1.319178e+00 
1.338776e+00 
1.358780e+00 
1.379174e+00 
1.399945e+00 
1.421079e+00 
1.442560e+00 
1.464377e+00 
1.486523e+00 
1.288217e+00 
1.269319e+00 
1.250874e+00 
1.232875e+00 
1.215337e+00 
1.198274e+00 
1.181706e+00 
1.165651e+00 
1.150127e+00 
1.135155e+00 
1.120752e+00 
1.106939e+00 
1.093738e+00 
1.081170e+00 
1.069259e+00 
1.058024e+00 
1.047487e+00 
1.037668e+00 
1.028589e+00 
1.020268e+00 
1.012724e+00 
1.005977e+00 
1.000043e+00 
9.949384e-01 
9.906786e-01 
9.872765e-01 
9.847442e-01 
9.830923e-01 
9.822255e-01 
9.828042e-01 
9.847574e-01 
9.878354e-01 
9.919239e-01 
9.969580e-01 
1.002898e+00 
1.009714e+00 
1.017382e+00 
1.025877e+00 
1.035176e+00 
1.045257e+00 
1.056095e+00 
1.067669e+00 
1.079953e+00 
1.092924e+00 
1.106559e+00 
1.120835e+00 
1.135727e+00 
1.151214e+00 
1.167272e+00 
1.183880e+00 
1.201018e+00 
1.218666e+00 
1.236803e+00 
1.255412e+00 
1.274473e+00 
1.293971e+00 
1.313889e+00 
1.334212e+00 
1.354923e+00 
1.376010e+00 
1.397457e+00 
1.419248e+00 
1.441371e+00 
1.463818e+00 
1.262726e+00 
1.243512e+00 
1.224749e+00 
1.206432e+00 
1.188576e+00 
1.171197e+00 
1.154313e+00 
1.137945e+00 
1.122112e+00 
1.106834e+00 
1.092131e+00 
1.078025e+00 
1.064536e+00 
1.051690e+00 
1.039509e+00 
1.028016e+00 
1.017232e+00 
1.007180e+00 
9.978816e-01 
9.893576e-01 
9.816286e-01 
9.747143e-01 
9.686334e-01 
9.634033e-01 
9.590399e-01 
9.555577e-01 
9.529694e-01 
9.512857e-01 
9.504185e-01 
9.510774e-01 
9.531296e-01 
9.563219e-01 
9.605411e-01 
9.657237e-01 
9.718310e-01 
9.788332e-01 
9.867045e-01 
9.954205e-01 
1.004957e+00 
1.015289e+00 
1.026393e+00 
1.038243e+00 
1.050814e+00 
1.064082e+00 
1.078021e+00 
1.092607e+00 
1.107815e+00 
1.123622e+00 
1.140003e+00 
1.156937e+00 
1.174403e+00 
1.192379e+00 
1.210846e+00 
1.229783e+00 
1.249174e+00 
1.268999e+00 
1.289244e+00 
1.309891e+00 
1.330926e+00 
1.352332e+00 
1.374095e+00 
1.396199e+00 
1.418629e+00 
1.441378e+00 
1.237477e+00 
1.217938e+00 
1.198849e+00 
1.180206e+00 
1.162022e+00 
1.144317e+00 
1.127109e+00 
1.110418e+00 
1.094265e+00 
1.078671e+00 
1.063657e+00 
1.049245e+00 
1.035458e+00 
1.022322e+00 
1.009860e+00 
9.980966e-01 
9.870552e-01 
9.767590e-01 
9.672313e-01 
9.584945e-01 
9.505708e-01 
9.434812e-01 
9.372458e-01 
9.318833e-01 
9.274111e-01 
9.238445e-01 
9.211975e-01 
9.194808e-01 
9.186145e-01 
9.193574e-01 
9.215114e-01 
9.248216e-01 
9.291762e-01 
9.345137e-01 
9.407956e-01 
9.479924e-01 
9.560773e-01 
9.650247e-01 
9.748091e-01 
9.854046e-01 
9.967850e-01 
1.008924e+00 
1.021794e+00 
1.035370e+00 
1.049625e+00 
1.064533e+00 
1.080068e+00 
1.096206e+00 
1.112921e+00 
1.130192e+00 
1.147996e+00 
1.166311e+00 
1.185116e+00 
1.204393e+00 
1.224121e+00 
1.244283e+00 
1.264862e+00 
1.285842e+00 
1.307206e+00 
1.328937e+00 
1.351020e+00 
1.373439e+00 
1.396180e+00 
1.419234e+00 
1.212481e+00 
1.192609e+00 
1.173186e+00 
1.154207e+00 
1.135687e+00 
1.117646e+00 
1.100103e+00 
1.083079e+00 
1.066595e+00 
1.050673e+00 
1.035337e+00 
1.020608e+00 
1.006511e+00 
9.930726e-01 
9.803182e-01 
9.682730e-01 
9.569620e-01 
9.464101e-01 
9.366421e-01 
9.276821e-01 
9.195537e-01 
9.122797e-01 
9.058817e-01 
9.003799e-01 
8.957930e-01 
8.921377e-01 
8.894289e-01 
8.876780e-01 
8.868139e-01 
8.876443e-01 
8.899028e-01 
8.933345e-01 
8.978298e-01 
9.033288e-01 
9.097937e-01 
9.171943e-01 
9.255032e-01 
9.346934e-01 
9.447378e-01 
9.556087e-01 
9.672784e-01 
9.797187e-01 
9.929012e-01 
1.006798e+00 
1.021381e+00 
1.036623e+00 
1.052497e+00 
1.068977e+00 
1.086039e+00 
1.103657e+00 
1.121809e+00 
1.140473e+00 
1.159627e+00 
1.179251e+00 
1.199326e+00 
1.219833e+00 
1.240755e+00 
1.262074e+00 
1.283773e+00 
1.305834e+00 
1.328242e+00 
1.350980e+00 
1.374036e+00 
1.397398e+00 
1.187748e+00 
1.167535e+00 
1.147769e+00 
1.128446e+00 
1.109581e+00 
1.091194e+00 
1.073305e+00 
1.055937e+00 
1.039112e+00 
1.022852e+00 
1.007181e+00 
9.921228e-01 
9.777036e-01 
9.639506e-01 
9.508909e-01 
9.385512e-01 
9.269582e-01 
9.161385e-01 
9.061183e-01 
8.969238e-01 
8.885802e-01 
8.811121e-01 
8.745428e-01 
8.688942e-01 
8.641864e-01 
8.604376e-01 
8.576638e-01 
8.558774e-01 
8.550170e-01 
8.559379e-01 
8.583036e-01 
8.618609e-01 
8.665026e-01 
8.721705e-01 
8.788272e-01 
8.864420e-01 
8.949862e-01 
9.044313e-01 
9.147483e-01 
9.259080e-01 
9.378804e-01 
9.506356e-01 
9.641436e-01 
9.783745e-01 
9.932989e-01 
1.008888e+00 
1.025113e+00 
1.041949e+00 
1.059367e+00 
1.077344e+00 
1.095856e+00 
1.114879e+00 
1.134391e+00 
1.154372e+00 
1.174803e+00 
1.195663e+00 
1.216934e+00 
1.238599e+00 
1.260637e+00 
1.283033e+00 
1.305770e+00 
1.328833e+00 
1.352206e+00 
1.375880e+00 
1.163287e+00 
1.142728e+00 
1.122612e+00 
1.102936e+00 
1.083716e+00 
1.064974e+00 
1.046730e+00 
1.029007e+00 
1.011829e+00 
9.952182e-01 
9.792005e-01 
9.638011e-01 
9.490467e-01 
9.349659e-01 
9.215876e-01 
9.089401e-01 
8.970518e-01 
8.859510e-01 
8.756660e-01 
8.662248e-01 
8.576546e-01 
8.499818e-01 
8.432316e-01 
8.374279e-01 
8.325923e-01 
8.287447e-01 
8.259024e-01 
8.240788e-01 
8.232240e-01 
8.242386e-01 
8.267145e-01 
8.304018e-01 
8.351964e-01 
8.410415e-01 
8.478999e-01 
8.557400e-01 
8.645318e-01 
8.742448e-01 
8.848482e-01 
8.963106e-01 
9.086001e-01 
9.216847e-01 
9.355323e-01 
9.501113e-01 
9.653906e-01 
9.813400e-01 
9.979303e-01 
1.015133e+00 
1.032921e+00 
1.051268e+00 
1.070150e+00 
1.089543e+00 
1.109423e+00 
1.129771e+00 
1.150566e+00 
1.171787e+00 
1.193414e+00 
1.215429e+00 
1.237812e+00 
1.260548e+00 
1.283618e+00 
1.307009e+00 
1.330704e+00 
1.354693e+00 
1.139136e+00 
1.118228e+00 
1.097753e+00 
1.077714e+00 
1.058130e+00 
1.039021e+00 
1.020410e+00 
1.002320e+00 
9.847753e-01 
9.678009e-01 
9.514225e-01 
9.356670e-01 
9.205624e-01 
9.061387e-01 
8.924266e-01 
8.794560e-01 
8.672572e-01 
8.558605e-01 
8.452962e-01 
8.355943e-01 
8.267843e-01 
8.188946e-01 
8.119526e-01 
8.059841e-01 
8.010127e-01 
7.970601e-01 
7.941450e-01 
7.922822e-01 
7.914349e-01 
7.925484e-01 
7.951383e-01 
7.989608e-01 
8.039154e-01 
8.099468e-01 
8.170177e-01 
8.250954e-01 
8.341481e-01 
8.441433e-01 
8.550478e-01 
8.668281e-01 
8.794498e-01 
8.928788e-01 
9.070809e-01 
9.220226e-01 
9.376711e-01 
9.539948e-01 
9.709631e-01 
9.885463e-01 
1.006716e+00 
1.025445e+00 
1.044709e+00 
1.064482e+00 
1.084741e+00 
1.105465e+00 
1.126631e+00 
1.148219e+00 
1.170209e+00 
1.192579e+00 
1.215313e+00 
1.238392e+00 
1.261800e+00 
1.285522e+00 
1.309543e+00 
1.333849e+00 
1.115331e+00 
1.094057e+00 
1.073212e+00 
1.052800e+00 
1.032840e+00 
1.013353e+00 
9.943626e-01 
9.758930e-01 
9.579692e-01 
9.406173e-01 
9.238643e-01 
9.077381e-01 
8.922681e-01 
8.774864e-01 
8.634250e-01 
8.501158e-01 
8.375910e-01 
8.258831e-01 
8.150244e-01 
8.050474e-01 
7.959838e-01 
7.878645e-01 
7.807190e-01 
7.745755e-01 
7.694597e-01 
7.653951e-01 
7.624022e-01 
7.604975e-01 
7.596561e-01 
7.608587e-01 
7.635614e-01 
7.675221e-01 
7.726428e-01 
7.788694e-01 
7.861638e-01 
7.944918e-01 
8.038195e-01 
8.141120e-01 
8.253336e-01 
8.374481e-01 
8.504188e-01 
8.642091e-01 
8.787823e-01 
8.941031e-01 
9.101369e-01 
9.268505e-01 
9.442117e-01 
9.621898e-01 
9.807554e-01 
9.998804e-01 
1.019538e+00 
1.039704e+00 
1.060353e+00 
1.081463e+00 
1.103011e+00 
1.124974e+00 
1.147333e+00 
1.170066e+00 
1.193157e+00 
1.216586e+00 
1.240338e+00 
1.264397e+00 
1.288747e+00 
1.313376e+00 
1.091823e+00 
1.070175e+00 
1.048953e+00 
1.028160e+00 
1.007815e+00 
9.879401e-01 
9.685601e-01 
9.496997e-01 
9.313848e-01 
9.136426e-01 
8.965015e-01 
8.799908e-01 
8.641413e-01 
8.489864e-01 
8.345602e-01 
8.208966e-01 
8.080300e-01 
7.959951e-01 
7.848267e-01 
7.745597e-01 
7.652284e-01 
7.568664e-01 
7.495058e-01 
7.431771e-01 
7.379087e-01 
7.337260e-01 
7.306516e-01 
7.287039e-01 
7.278743e-01 
7.291811e-01 
7.320057e-01 
7.361139e-01 
7.414113e-01 
7.478449e-01 
7.553762e-01 
7.639693e-01 
7.735878e-01 
7.841941e-01 
7.957498e-01 
8.082156e-01 
8.215522e-01 
8.357203e-01 
8.506809e-01 
8.663967e-01 
8.828313e-01 
8.999498e-01 
9.177184e-01 
9.361050e-01 
9.550789e-01 
9.746113e-01 
9.946746e-01 
1.015243e+00 
1.036291e+00 
1.057795e+00 
1.079731e+00 
1.102075e+00 
1.124808e+00 
1.147910e+00 
1.171361e+00 
1.195144e+00 
1.219243e+00 
1.243641e+00 
1.268324e+00 
1.293277e+00 
1.068659e+00 
1.046631e+00 
1.025024e+00 
1.003840e+00 
9.831000e-01 
9.628271e-01 
9.430458e-01 
9.237820e-01 
9.050627e-01 
8.869164e-01 
8.693724e-01 
8.524616e-01 
8.362165e-01 
8.206718e-01 
8.058638e-01 
7.918285e-01 
7.786025e-01 
7.662231e-01 
7.547278e-01 
7.441541e-01 
7.345393e-01 
7.259197e-01 
7.183305e-01 
7.118050e-01 
7.063741e-01 
7.020657e-01 
6.989047e-01 
6.969116e-01 
6.960969e-01 
6.975110e-01 
7.004622e-01 
7.047249e-01 
7.102088e-01 
7.168622e-01 
7.246452e-01 
7.335198e-01 
7.434467e-01 
7.543852e-01 
7.662937e-01 
7.791298e-01 
7.928511e-01 
8.074154e-01 
8.227816e-01 
8.389100e-01 
8.557623e-01 
8.733017e-01 
8.914928e-01 
9.103022e-01 
9.296980e-01 
9.496504e-01 
9.701310e-01 
9.911124e-01 
1.012568e+00 
1.034473e+00 
1.056802e+00 
1.079534e+00 
1.102646e+00 
1.126120e+00 
1.149935e+00 
1.174075e+00 
1.198522e+00 
1.223262e+00 
1.248278e+00 
1.273556e+00 
1.045858e+00 
1.023443e+00 
1.001442e+00 
9.798586e-01 
9.587138e-01 
9.380316e-01 
9.178371e-01 
8.981573e-01 
8.790201e-01 
8.604551e-01 
8.424930e-01 
8.251663e-01 
8.085087e-01 
7.925568e-01 
7.773489e-01 
7.629235e-01 
7.493195e-01 
7.365770e-01 
7.247363e-01 
7.138379e-01 
7.039224e-01 
6.950292e-01 
6.871967e-01 
6.804614e-01 
6.748571e-01 
6.704148e-01 
6.671615e-01 
6.651205e-01 
6.643238e-01 
6.658488e-01 
6.689313e-01 
6.733565e-01 
6.790381e-01 
6.859247e-01 
6.939754e-01 
7.031491e-01 
7.134032e-01 
7.246936e-01 
7.369749e-01 
7.502014e-01 
7.643273e-01 
7.793075e-01 
7.950984e-01 
8.116580e-01 
8.289456e-01 
8.469226e-01 
8.655520e-01 
8.847990e-01 
9.046307e-01 
9.250160e-01 
9.459252e-01 
9.673295e-01 
9.892015e-01 
1.011515e+00 
1.034246e+00 
1.057370e+00 
1.080868e+00 
1.104719e+00 
1.128903e+00 
1.153404e+00 
1.178203e+00 
1.203286e+00 
1.228637e+00 
1.254242e+00 
1.023440e+00 
1.000629e+00 
9.782263e-01 
9.562343e-01 
9.346748e-01 
9.135724e-01 
8.929531e-01 
8.728445e-01 
8.532758e-01 
8.342775e-01 
8.158817e-01 
7.981224e-01 
7.810350e-01 
7.646577e-01 
7.490311e-01 
7.341959e-01 
7.201941e-01 
7.070684e-01 
6.948624e-01 
6.836199e-01 
6.733848e-01 
6.642004e-01 
6.561085e-01 
6.491492e-01 
6.433598e-01 
6.387742e-01 
6.354224e-01 
6.333306e-01 
6.325554e-01 
6.341943e-01 
6.374136e-01 
6.420102e-01 
6.479016e-01 
6.550369e-01 
6.633727e-01 
6.728649e-01 
6.834669e-01 
6.951305e-01 
7.078065e-01 
7.214451e-01 
7.359970e-01 
7.514141e-01 
7.676500e-01 
7.846600e-01 
8.024013e-01 
8.208332e-01 
8.399172e-01 
8.596171e-01 
8.798987e-01 
9.007295e-01 
9.220783e-01 
9.439151e-01 
9.662117e-01 
9.889417e-01 
1.012081e+00 
1.035605e+00 
1.059494e+00 
1.083726e+00 
1.108283e+00 
1.133148e+00 
1.158302e+00 
1.183730e+00 
1.209418e+00 
1.235351e+00 
1.001422e+00 
9.782102e-01 
9.553975e-01 
9.329883e-01 
9.110046e-01 
8.894715e-01 
8.684159e-01 
8.478659e-01 
8.278518e-01 
8.084052e-01 
7.895598e-01 
7.713507e-01 
7.538154e-01 
7.369936e-01 
7.209282e-01 
7.056627e-01 
6.912418e-01 
6.777114e-01 
6.651185e-01 
6.535107e-01 
6.429356e-01 
6.334406e-01 
6.250715e-01 
6.178725e-01 
6.118847e-01 
6.071455e-01 
6.036882e-01 
6.015423e-01 
6.007922e-01 
6.025477e-01 
6.059097e-01 
6.106874e-01 
6.168024e-01 
6.242032e-01 
6.328437e-01 
6.426758e-01 
6.536483e-01 
6.657085e-01 
6.788026e-01 
6.928767e-01 
7.078777e-01 
7.237541e-01 
7.404565e-01 
7.579373e-01 
7.761514e-01 
7.950563e-01 
8.146117e-01 
8.347799e-01 
8.555254e-01 
8.768140e-01 
8.986129e-01 
9.208916e-01 
9.436214e-01 
9.667755e-01 
9.903291e-01 
1.014259e+00 
1.038543e+00 
1.063162e+00 
1.088095e+00 
1.113326e+00 
1.138836e+00 
1.164611e+00 
1.190637e+00 
1.216899e+00 
9.798323e-01 
9.562146e-01 
9.329853e-01 
9.101507e-01 
8.877335e-01 
8.657593e-01 
8.442556e-01 
8.232514e-01 
8.027778e-01 
7.828676e-01 
7.635556e-01 
7.448789e-01 
7.268763e-01 
7.095897e-01 
6.930641e-01 
6.773458e-01 
6.624828e-01 
6.485242e-01 
6.355209e-01 
6.235244e-01 
6.125866e-01 
6.027594e-01 
5.940933e-01 
5.866369e-01 
5.804357e-01 
5.755312e-01 
5.719604e-01 
5.697564e-01 
5.690348e-01 
5.709096e-01 
5.744206e-01 
5.793906e-01 
5.857444e-01 
5.934296e-01 
6.023964e-01 
6.125919e-01 
6.239598e-01 
6.364420e-01 
6.499796e-01 
6.645145e-01 
6.799893e-01 
6.963488e-01 
7.135401e-01 
7.315130e-01 
7.502200e-01 
7.696164e-01 
7.896604e-01 
8.103126e-01 
8.315356e-01 
8.532937e-01 
8.755533e-01 
8.982832e-01 
9.214544e-01 
9.450399e-01 
9.690146e-01 
9.933550e-01 
1.018039e+00 
1.043047e+00 
1.068359e+00 
1.093958e+00 
1.119826e+00 
1.145949e+00 
1.172312e+00 
1.198903e+00 
9.587246e-01 
9.346981e-01 
9.110438e-01 
8.877743e-01 
8.649129e-01 
8.424858e-01 
8.205209e-01 
7.990480e-01 
7.780990e-01 
7.577079e-01 
7.379108e-01 
7.187461e-01 
7.002548e-01 
6.824806e-01 
6.654708e-01 
6.492750e-01 
6.339440e-01 
6.195310e-01 
6.060907e-01 
5.936792e-01 
5.823531e-01 
5.721693e-01 
5.631834e-01 
5.554493e-01 
5.490174e-01 
5.439343e-01 
5.402406e-01 
5.379738e-01 
5.372844e-01 
5.392813e-01 
5.429485e-01 
5.481229e-01 
5.547327e-01 
5.627234e-01 
5.720407e-01 
5.826257e-01 
5.944162e-01 
6.073480e-01 
6.213568e-01 
6.363794e-01 
6.523541e-01 
6.692216e-01 
6.869258e-01 
7.054131e-01 
7.246338e-01 
7.445409e-01 
7.650908e-01 
7.862423e-01 
8.079561e-01 
8.301955e-01 
8.529262e-01 
8.761165e-01 
8.997371e-01 
9.237608e-01 
9.481622e-01 
9.729181e-01 
9.980064e-01 
1.023406e+00 
1.049099e+00 
1.075067e+00 
1.101293e+00 
1.127764e+00 
1.154465e+00 
1.181384e+00 
9.381324e-01 
9.136828e-01 
8.895939e-01 
8.658792e-01 
8.425626e-01 
8.196704e-01 
7.972310e-01 
7.752750e-01 
7.538351e-01 
7.329461e-01 
7.126455e-01 
6.929733e-01 
6.739720e-01 
6.556875e-01 
6.381698e-01 
6.214713e-01 
6.056464e-01 
5.907520e-01 
5.768474e-01 
5.639935e-01 
5.522522e-01 
5.416859e-01 
5.323560e-01 
5.243223e-01 
5.176412e-01 
5.123644e-01 
5.085375e-01 
5.062016e-01 
5.055391e-01 
5.076491e-01 
5.114781e-01 
5.168699e-01 
5.237545e-01 
5.320740e-01 
5.417683e-01 
5.527720e-01 
5.650156e-01 
5.784281e-01 
5.929391e-01 
6.084796e-01 
6.249833e-01 
6.423867e-01 
6.606299e-01 
6.796563e-01 
6.994136e-01 
7.198526e-01 
7.409277e-01 
7.625954e-01 
7.848152e-01 
8.075495e-01 
8.307634e-01 
8.544250e-01 
8.785046e-01 
9.029749e-01 
9.278106e-01 
9.529881e-01 
9.784855e-01 
1.004282e+00 
1.030359e+00 
1.056699e+00 
1.083287e+00 
1.110108e+00 
1.137149e+00 
1.164397e+00 
9.179892e-01 
8.931106e-01 
8.685846e-01 
8.444210e-01 
8.206439e-01 
7.972799e-01 
7.743578e-01 
7.519085e-01 
7.299656e-01 
7.085649e-01 
6.877450e-01 
6.675474e-01 
6.480165e-01 
6.292003e-01 
6.111510e-01 
5.939243e-01 
5.775786e-01 
5.621749e-01 
5.477771e-01 
5.344517e-01 
5.222663e-01 
5.112896e-01 
5.015898e-01 
4.932333e-01 
4.862833e-01 
4.807978e-01 
4.768280e-01 
4.744196e-01 
4.737971e-01 
4.760352e-01 
4.800397e-01 
4.856678e-01 
4.928508e-01 
5.015267e-01 
5.116286e-01 
5.230831e-01 
5.358125e-01 
5.497384e-01 
5.647834e-01 
5.808727e-01 
5.979345e-01 
6.159008e-01 
6.347079e-01 
6.542961e-01 
6.746105e-01 
6.955997e-01 
7.172154e-01 
7.394125e-01 
7.621496e-01 
7.853883e-01 
8.090936e-01 
8.332332e-01 
8.577772e-01 
8.826983e-01 
9.079714e-01 
9.335729e-01 
9.594808e-01 
9.856751e-01 
1.012138e+00 
1.038852e+00 
1.065802e+00 
1.092975e+00 
1.120357e+00 
1.147936e+00 
8.983720e-01 
8.730652e-01 
8.480972e-01 
8.234786e-01 
7.992335e-01 
7.753886e-01 
7.519732e-01 
7.290185e-01 
7.065586e-01 
6.846303e-01 
6.632733e-01 
6.425304e-01 
6.224480e-01 
6.030761e-01 
5.844692e-01 
5.666866e-01 
5.497903e-01 
5.338461e-01 
5.189230e-01 
5.050933e-01 
4.924311e-01 
4.810122e-01 
4.709124e-01 
4.622058e-01 
4.549634e-01 
4.492509e-01 
4.451259e-01 
4.426388e-01 
4.420605e-01 
4.444305e-01 
4.486220e-01 
4.545056e-01 
4.620129e-01 
4.710764e-01 
4.816206e-01 
4.935625e-01 
5.068150e-01 
5.212913e-01 
5.369063e-01 
5.535784e-01 
5.712301e-01 
5.897887e-01 
6.091865e-01 
6.293608e-01 
6.502536e-01 
6.718109e-01 
6.939825e-01 
7.167222e-01 
7.399877e-01 
7.637403e-01 
7.879444e-01 
8.125677e-01 
8.375804e-01 
8.629552e-01 
8.886669e-01 
9.146923e-01 
9.410101e-01 
9.676008e-01 
9.944469e-01 
1.021532e+00 
1.048842e+00 
1.076361e+00 
1.104079e+00 
1.131982e+00 
8.793149e-01 
8.535772e-01 
8.281632e-01 
8.030842e-01 
7.783645e-01 
7.540308e-01 
7.301123e-01 
7.066407e-01 
6.836504e-01 
6.611790e-01 
6.392672e-01 
6.179592e-01 
5.973030e-01 
5.773507e-01 
5.581593e-01 
5.397914e-01 
5.223131e-01 
5.057949e-01 
4.903115e-01 
4.759415e-01 
4.627664e-01 
4.508697e-01 
4.403360e-01 
4.312484e-01 
4.236872e-01 
4.177267e-01 
4.134323e-01 
4.108595e-01 
4.103293e-01 
4.128354e-01 
4.172272e-01 
4.233882e-01 
4.312494e-01 
4.407357e-01 
4.517610e-01 
4.642310e-01 
4.780478e-01 
4.931149e-01 
5.093385e-01 
5.266298e-01 
5.449051e-01 
5.640868e-01 
5.841030e-01 
6.048878e-01 
6.263804e-01 
6.485243e-01 
6.712678e-01 
6.945638e-01 
7.183695e-01 
7.426456e-01 
7.673567e-01 
7.924702e-01 
8.179564e-01 
8.437884e-01 
8.699411e-01 
8.963917e-01 
9.231196e-01 
9.501061e-01 
9.773340e-01 
1.004788e+00 
1.032452e+00 
1.060315e+00 
1.088363e+00 
1.116586e+00 
8.608509e-01 
8.346805e-01 
8.088177e-01 
7.832744e-01 
7.580746e-01 
7.332450e-01 
7.088146e-01 
6.848154e-01 
6.612820e-01 
6.382526e-01 
6.157686e-01 
5.938755e-01 
5.726229e-01 
5.520649e-01 
5.322610e-01 
5.132768e-01 
4.951830e-01 
4.780549e-01 
4.619732e-01 
4.470234e-01 
4.332950e-01 
4.208808e-01 
4.098750e-01 
4.003714e-01 
3.924608e-01 
3.862284e-01 
3.817485e-01 
3.790820e-01 
3.786032e-01 
3.812499e-01 
3.858574e-01 
3.923216e-01 
4.005708e-01 
4.105202e-01 
4.220708e-01 
4.351147e-01 
4.495417e-01 
4.652438e-01 
4.821181e-01 
5.000674e-01 
5.190018e-01 
5.388383e-01 
5.595013e-01 
5.809213e-01 
6.030347e-01 
6.257831e-01 
6.491138e-01 
6.729789e-01 
6.973352e-01 
7.221433e-01 
7.473677e-01 
7.729761e-01 
7.989392e-01 
8.252302e-01 
8.518245e-01 
8.787003e-01 
9.058375e-01 
9.332180e-01 
9.608253e-01 
9.886440e-01 
1.016660e+00 
1.044862e+00 
1.073236e+00 
1.101773e+00 
8.430151e-01 
8.164114e-01 
7.900982e-01 
7.640876e-01 
7.384033e-01 
7.130718e-01 
6.881218e-01 
6.635851e-01 
6.394967e-01 
6.158948e-01 
5.928216e-01 
5.703237e-01 
5.484519e-01 
5.272623e-01 
5.068170e-01 
4.871844e-01 
4.684393e-01 
4.506627e-01 
4.339414e-01 
4.183684e-01 
4.040423e-01 
3.910659e-01 
3.795449e-01 
3.695853e-01 
3.612908e-01 
3.547589e-01 
3.500752e-01 
3.473061e-01 
3.468812e-01 
3.496743e-01 
3.545156e-01 
3.613130e-01 
3.699900e-01 
3.804492e-01 
3.925755e-01 
4.062450e-01 
4.213330e-01 
4.377190e-01 
4.552891e-01 
4.739378e-01 
4.935682e-01 
5.140925e-01 
5.354309e-01 
5.575104e-01 
5.802650e-01 
6.036352e-01 
6.275672e-01 
6.520129e-01 
6.769287e-01 
7.022755e-01 
7.280181e-01 
7.541245e-01 
7.805659e-01 
8.073159e-01 
8.343511e-01 
8.616503e-01 
8.891942e-01 
9.169653e-01 
9.449477e-01 
9.731270e-01 
1.001490e+00 
1.030024e+00 
1.058719e+00 
1.087563e+00 
8.258384e-01 
7.988032e-01 
7.720393e-01 
7.455599e-01 
7.193883e-01 
6.935503e-01 
6.680743e-01 
6.429919e-01 
6.183378e-01 
5.941503e-01 
5.704721e-01 
5.473504e-01 
5.248372e-01 
5.029904e-01 
4.818742e-01 