# vtk DataFile Version 2.0 
Quadtree Mesh 
ASCII 
DATASET UNSTRUCTURED_GRID 
POINTS 4096 double 
-1.000000e+00 -1.000000e+00 0.000000e+00
-9.682540e-01 -1.000000e+00 0.000000e+00
-9.365079e-01 -1.000000e+00 0.000000e+00
-9.047619e-01 -1.000000e+00 0.000000e+00
-8.730159e-01 -1.000000e+00 0.000000e+00
-8.412698e-01 -1.000000e+00 0.000000e+00
-8.095238e-01 -1.000000e+00 0.000000e+00
-7.777778e-01 -1.000000e+00 0.000000e+00
-7.460317e-01 -1.000000e+00 0.000000e+00
-7.142857e-01 -1.000000e+00 0.000000e+00
-6.825397e-01 -1.000000e+00 0.000000e+00
-6.507937e-01 -1.000000e+00 0.000000e+00
-6.190476e-01 -1.000000e+00 0.000000e+00
-5.873016e-01 -1.000000e+00 0.000000e+00
-5.555556e-01 -1.000000e+00 0.000000e+00
-5.238095e-01 -1.000000e+00 0.000000e+00
-4.920635e-01 -1.000000e+00 0.000000e+00
-4.603175e-01 -1.000000e+00 0.000000e+00
-4.285714e-01 -1.000000e+00 0.000000e+00
-3.968254e-01 -1.000000e+00 0.000000e+00
-3.650794e-01 -1.000000e+00 0.000000e+00
-3.333333e-01 -1.000000e+00 0.000000e+00
-3.015873e-01 -1.000000e+00 0.000000e+00
-2.698413e-01 -1.000000e+00 0.000000e+00
-2.380952e-01 -1.000000e+00 0.000000e+00
-2.063492e-01 -1.000000e+00 0.000000e+00
-1.746032e-01 -1.000000e+00 0.000000e+00
-1.428571e-01 -1.000000e+00 0.000000e+00
-1.111111e-01 -1.000000e+00 0.000000e+00
-7.936508e-02 -1.000000e+00 0.000000e+00
-4.761905e-02 -1.000000e+00 0.000000e+00
-1.587302e-02 -1.000000e+00 0.000000e+00
1.587302e-02 -1.000000e+00 0.000000e+00
4.761905e-02 -1.000000e+00 0.000000e+00
7.936508e-02 -1.000000e+00 0.000000e+00
1.111111e-01 -1.000000e+00 0.000000e+00
1.428571e-01 -1.000000e+00 0.000000e+00
1.746032e-01 -1.000000e+00 0.000000e+00
2.063492e-01 -1.000000e+00 0.000000e+00
2.380952e-01 -1.000000e+00 0.000000e+00
2.698413e-01 -1.000000e+00 0.000000e+00
3.015873e-01 -1.000000e+00 0.000000e+00
3.333333e-01 -1.000000e+00 0.000000e+00
3.650794e-01 -1.000000e+00 0.000000e+00
3.968254e-01 -1.000000e+00 0.000000e+00
4.285714e-01 -1.000000e+00 0.000000e+00
4.603175e-01 -1.000000e+00 0.000000e+00
4.920635e-01 -1.000000e+00 0.000000e+00
5.238095e-01 -1.000000e+00 0.000000e+00
5.555556e-01 -1.000000e+00 0.000000e+00
5.873016e-01 -1.000000e+00 0.000000e+00
6.190476e-01 -1.000000e+00 0.000000e+00
6.507937e-01 -1.000000e+00 0.000000e+00
6.825397e-01 -1.000000e+00 0.000000e+00
7.142857e-01 -1.000000e+00 0.000000e+00
7.460317e-01 -1.000000e+00 0.000000e+00
7.777778e-01 -1.000000e+00 0.000000e+00
8.095238e-01 -1.000000e+00 0.000000e+00
8.412698e-01 -1.000000e+00 0.000000e+00
8.730159e-01 -1.000000e+00 0.000000e+00
9.047619e-01 -1.000000e+00 0.000000e+00
9.365079e-01 -1.000000e+00 0.000000e+00
9.682540e-01 -1.000000e+00 0.000000e+00
1.000000e+00 -1.000000e+00 0.000000e+00
-1.000000e+00 -9.682540e-01 0.000000e+00
-9.682540e-01 -9.682540e-01 0.000000e+00
-9.365079e-01 -9.682540e-01 0.000000e+00
-9.047619e-01 -9.682540e-01 0.000000e+00
-8.730159e-01 -9.682540e-01 0.000000e+00
-8.412698e-01 -9.682540e-01 0.000000e+00
-8.095238e-01 -9.682540e-01 0.000000e+00
-7.777778e-01 -9.682540e-01 0.000000e+00
-7.460317e-01 -9.682540e-01 0.000000e+00
-7.142857e-01 -9.682540e-01 0.000000e+00
-6.825397e-01 -9.682540e-01 0.000000e+00
-6.507937e-01 -9.682540e-01 0.000000e+00
-6.190476e-01 -9.682540e-01 0.000000e+00
-5.873016e-01 -9.682540e-01 0.000000e+00
-5.555556e-01 -9.682540e-01 0.000000e+00
-5.238095e-01 -9.682540e-01 0.000000e+00
-4.920635e-01 -9.682540e-01 0.000000e+00
-4.603175e-01 -9.682540e-01 0.000000e+00
-4.285714e-01 -9.682540e-01 0.000000e+00
-3.968254e-01 -9.682540e-01 0.000000e+00
-3.650794e-01 -9.682540e-01 0.000000e+00
-3.333333e-01 -9.682540e-01 0.000000e+00
-3.015873e-01 -9.682540e-01 0.000000e+00
-2.698413e-01 -9.682540e-01 0.000000e+00
-2.380952e-01 -9.682540e-01 0.000000e+00
-2.063492e-01 -9.682540e-01 0.000000e+00
-1.746032e-01 -9.682540e-01 0.000000e+00
-1.428571e-01 -9.682540e-01 0.000000e+00
-1.111111e-01 -9.682540e-01 0.000000e+00
-7.936508e-02 -9.682540e-01 0.000000e+00
-4.761905e-02 -9.682540e-01 0.000000e+00
-1.587302e-02 -9.682540e-01 0.000000e+00
1.587302e-02 -9.682540e-01 0.000000e+00
4.761905e-02 -9.682540e-01 0.000000e+00
7.936508e-02 -9.682540e-01 0.000000e+00
1.111111e-01 -9.682540e-01 0.000000e+00
1.428571e-01 -9.682540e-01 0.000000e+00
1.746032e-01 -9.682540e-01 0.000000e+00
2.063492e-01 -9.682540e-01 0.000000e+00
2.380952e-01 -9.682540e-01 0.000000e+00
2.698413e-01 -9.682540e-01 0.000000e+00
3.015873e-01 -9.682540e-01 0.000000e+00
3.333333e-01 -9.682540e-01 0.000000e+00
3.650794e-01 -9.682540e-01 0.000000e+00
3.968254e-01 -9.682540e-01 0.000000e+00
4.285714e-01 -9.682540e-01 0.000000e+00
4.603175e-01 -9.682540e-01 0.000000e+00
4.920635e-01 -9.682540e-01 0.000000e+00
5.238095e-01 -9.682540e-01 0.000000e+00
5.555556e-01 -9.682540e-01 0.000000e+00
5.873016e-01 -9.682540e-01 0.000000e+00
6.190476e-01 -9.682540e-01 0.000000e+00
6.507937e-01 -9.682540e-01 0.000000e+00
6.825397e-01 -9.682540e-01 0.000000e+00
7.142857e-01 -9.682540e-01 0.000000e+00
7.460317e-01 -9.682540e-01 0.000000e+00
7.777778e-01 -9.682540e-01 0.000000e+00
8.095238e-01 -9.682540e-01 0.000000e+00
8.412698e-01 -9.682540e-01 0.000000e+00
8.730159e-01 -9.682540e-01 0.000000e+00
9.047619e-01 -9.682540e-01 0.000000e+00
9.365079e-01 -9.682540e-01 0.000000e+00
9.682540e-01 -9.682540e-01 0.000000e+00
1.000000e+00 -9.682540e-01 0.000000e+00
-1.000000e+00 -9.365079e-01 0.000000e+00
-9.682540e-01 -9.365079e-01 0.000000e+00
-9.365079e-01 -9.365079e-01 0.000000e+00
-9.047619e-01 -9.365079e-01 0.000000e+00
-8.730159e-01 -9.365079e-01 0.000000e+00
-8.412698e-01 -9.365079e-01 0.000000e+00
-8.095238e-01 -9.365079e-01 0.000000e+00
-7.777778e-01 -9.365079e-01 0.000000e+00
-7.460317e-01 -9.365079e-01 0.000000e+00
-7.142857e-01 -9.365079e-01 0.000000e+00
-6.825397e-01 -9.365079e-01 0.000000e+00
-6.507937e-01 -9.365079e-01 0.000000e+00
-6.190476e-01 -9.365079e-01 0.000000e+00
-5.873016e-01 -9.365079e-01 0.000000e+00
-5.555556e-01 -9.365079e-01 0.000000e+00
-5.238095e-01 -9.365079e-01 0.000000e+00
-4.920635e-01 -9.365079e-01 0.000000e+00
-4.603175e-01 -9.365079e-01 0.000000e+00
-4.285714e-01 -9.365079e-01 0.000000e+00
-3.968254e-01 -9.365079e-01 0.000000e+00
-3.650794e-01 -9.365079e-01 0.000000e+00
-3.333333e-01 -9.365079e-01 0.000000e+00
-3.015873e-01 -9.365079e-01 0.000000e+00
-2.698413e-01 -9.365079e-01 0.000000e+00
-2.380952e-01 -9.365079e-01 0.000000e+00
-2.063492e-01 -9.365079e-01 0.000000e+00
-1.746032e-01 -9.365079e-01 0.000000e+00
-1.428571e-01 -9.365079e-01 0.000000e+00
-1.111111e-01 -9.365079e-01 0.000000e+00
-7.936508e-02 -9.365079e-01 0.000000e+00
-4.761905e-02 -9.365079e-01 0.000000e+00
-1.587302e-02 -9.365079e-01 0.000000e+00
1.587302e-02 -9.365079e-01 0.000000e+00
4.761905e-02 -9.365079e-01 0.000000e+00
7.936508e-02 -9.365079e-01 0.000000e+00
1.111111e-01 -9.365079e-01 0.000000e+00
1.428571e-01 -9.365079e-01 0.000000e+00
1.746032e-01 -9.365079e-01 0.000000e+00
2.063492e-01 -9.365079e-01 0.000000e+00
2.380952e-01 -9.365079e-01 0.000000e+00
2.698413e-01 -9.365079e-01 0.000000e+00
3.015873e-01 -9.365079e-01 0.000000e+00
3.333333e-01 -9.365079e-01 0.000000e+00
3.650794e-01 -9.365079e-01 0.000000e+00
3.968254e-01 -9.365079e-01 0.000000e+00
4.285714e-01 -9.365079e-01 0.000000e+00
4.603175e-01 -9.365079e-01 0.000000e+00
4.920635e-01 -9.365079e-01 0.000000e+00
5.238095e-01 -9.365079e-01 0.000000e+00
5.555556e-01 -9.365079e-01 0.000000e+00
5.873016e-01 -9.365079e-01 0.000000e+00
6.190476e-01 -9.365079e-01 0.000000e+00
6.507937e-01 -9.365079e-01 0.000000e+00
6.825397e-01 -9.365079e-01 0.000000e+00
7.142857e-01 -9.365079e-01 0.000000e+00
7.460317e-01 -9.365079e-01 0.000000e+00
7.777778e-01 -9.365079e-01 0.000000e+00
8.095238e-01 -9.365079e-01 0.000000e+00
8.412698e-01 -9.365079e-01 0.000000e+00
8.730159e-01 -9.365079e-01 0.000000e+00
9.047619e-01 -9.365079e-01 0.000000e+00
9.365079e-01 -9.365079e-01 0.000000e+00
9.682540e-01 -9.365079e-01 0.000000e+00
1.000000e+00 -9.365079e-01 0.000000e+00
-1.000000e+00 -9.047619e-01 0.000000e+00
-9.682540e-01 -9.047619e-01 0.000000e+00
-9.365079e-01 -9.047619e-01 0.000000e+00
-9.047619e-01 -9.047619e-01 0.000000e+00
-8.730159e-01 -9.047619e-01 0.000000e+00
-8.412698e-01 -9.047619e-01 0.000000e+00
-8.095238e-01 -9.047619e-01 0.000000e+00
-7.777778e-01 -9.047619e-01 0.000000e+00
-7.460317e-01 -9.047619e-01 0.000000e+00
-7.142857e-01 -9.047619e-01 0.000000e+00
-6.825397e-01 -9.047619e-01 0.000000e+00
-6.507937e-01 -9.047619e-01 0.000000e+00
-6.190476e-01 -9.047619e-01 0.000000e+00
-5.873016e-01 -9.047619e-01 0.000000e+00
-5.555556e-01 -9.047619e-01 0.000000e+00
-5.238095e-01 -9.047619e-01 0.000000e+00
-4.920635e-01 -9.047619e-01 0.000000e+00
-4.603175e-01 -9.047619e-01 0.000000e+00
-4.285714e-01 -9.047619e-01 0.000000e+00
-3.968254e-01 -9.047619e-01 0.000000e+00
-3.650794e-01 -9.047619e-01 0.000000e+00
-3.333333e-01 -9.047619e-01 0.000000e+00
-3.015873e-01 -9.047619e-01 0.000000e+00
-2.698413e-01 -9.047619e-01 0.000000e+00
-2.380952e-01 -9.047619e-01 0.000000e+00
-2.063492e-01 -9.047619e-01 0.000000e+00
-1.746032e-01 -9.047619e-01 0.000000e+00
-1.428571e-01 -9.047619e-01 0.000000e+00
-1.111111e-01 -9.047619e-01 0.000000e+00
-7.936508e-02 -9.047619e-01 0.000000e+00
-4.761905e-02 -9.047619e-01 0.000000e+00
-1.587302e-02 -9.047619e-01 0.000000e+00
1.587302e-02 -9.047619e-01 0.000000e+00
4.761905e-02 -9.047619e-01 0.000000e+00
7.936508e-02 -9.047619e-01 0.000000e+00
1.111111e-01 -9.047619e-01 0.000000e+00
1.428571e-01 -9.047619e-01 0.000000e+00
1.746032e-01 -9.047619e-01 0.000000e+00
2.063492e-01 -9.047619e-01 0.000000e+00
2.380952e-01 -9.047619e-01 0.000000e+00
2.698413e-01 -9.047619e-01 0.000000e+00
3.015873e-01 -9.047619e-01 0.000000e+00
3.333333e-01 -9.047619e-01 0.000000e+00
3.650794e-01 -9.047619e-01 0.000000e+00
3.968254e-01 -9.047619e-01 0.000000e+00
4.285714e-01 -9.047619e-01 0.000000e+00
4.603175e-01 -9.047619e-01 0.000000e+00
4.920635e-01 -9.047619e-01 0.000000e+00
5.238095e-01 -9.047619e-01 0.000000e+00
5.555556e-01 -9.047619e-01 0.000000e+00
5.873016e-01 -9.047619e-01 0.000000e+00
6.190476e-01 -9.047619e-01 0.000000e+00
[...]
POINT_DATA 4096 
SCALARS concentration double 1 
LOOKUP_TABLE default 
1.479036e+00 
1.457643e+00 
1.436562e+00 
1.415815e+00 
1.395413e+00 
1.375370e+00 
1.355699e+00 
1.336416e+00 
1.317535e+00 
1.299074e+00 
1.281048e+00 
1.263476e+00 
1.246377e+00 
1.229768e+00 
1.213668e+00 
1.198094e+00 
1.183064e+00 
1.168596e+00 
1.154706e+00 
1.141416e+00 
1.128744e+00 
1.116709e+00 
1.105333e+00 
1.094637e+00 
1.084640e+00 
1.075363e+00 
1.066826e+00 
1.059047e+00 
1.052044e+00 
1.045835e+00 
1.040435e+00 
1.035859e+00 
1.032122e+00 
1.029237e+00 
1.027211e+00 
1.026057e+00 
1.025875e+00 
1.026893e+00 
1.029085e+00 
1.032364e+00 
1.036638e+00 
1.041837e+00 
1.047909e+00 
1.054818e+00 
1.062537e+00 
1.071043e+00 
1.080315e+00 
1.090331e+00 
1.101071e+00 
1.112516e+00 
1.124643e+00 
1.137433e+00 
1.150864e+00 
1.164914e+00 
1.179561e+00 
1.194784e+00 
1.210564e+00 
1.226880e+00 
1.243713e+00 
1.261045e+00 
1.278858e+00 
1.297132e+00 
1.315852e+00 
1.335000e+00 
1.455616e+00 
1.433928e+00 
1.412549e+00 
1.391502e+00 
1.370796e+00 
1.350446e+00 
1.330467e+00 
1.310873e+00 
1.291681e+00 
1.272906e+00 
1.254566e+00 
1.236679e+00 
1.219265e+00 
1.202342e+00 
1.185930e+00 
1.170049e+00 
1.154716e+00 
1.139949e+00 
1.125768e+00 
1.112193e+00 
1.099244e+00 
1.086942e+00 
1.075308e+00 
1.064364e+00 
1.054133e+00 
1.044636e+00 
1.035893e+00 
1.027925e+00 
1.020750e+00 
1.014388e+00 
1.008856e+00 
1.004168e+00 
1.000342e+00 
9.973902e-01 
9.953214e-01 
9.941484e-01 
9.939919e-01 
9.950862e-01 
9.973854e-01 
1.000788e+00 
1.005199e+00 
1.010545e+00 
1.016779e+00 
1.023865e+00 
1.031777e+00 
1.040490e+00 
1.049983e+00 
1.060235e+00 
1.071224e+00 
1.082928e+00 
1.095325e+00 
1.108394e+00 
1.122112e+00 
1.136456e+00 
1.151403e+00 
1.166930e+00 
1.183018e+00 
1.199646e+00 
1.216793e+00 
1.234440e+00 
1.252569e+00 
1.271160e+00 
1.290196e+00 
1.309660e+00 
1.432476e+00 
1.410488e+00 
1.388808e+00 
1.367454e+00 
1.346439e+00 
1.325778e+00 
1.305483e+00 
1.285572e+00 
1.266061e+00 
1.246965e+00 
1.228303e+00 
1.210094e+00 
1.192356e+00 
1.175110e+00 
1.158377e+00 
1.142176e+00 
1.126529e+00 
1.111453e+00 
1.096969e+00 
1.083098e+00 
1.069860e+00 
1.057279e+00 
1.045376e+00 
1.034175e+00 
1.023699e+00 
1.013971e+00 
1.005012e+00 
9.968458e-01 
9.894916e-01 
9.829693e-01 
9.772972e-01 
9.724926e-01 
9.685722e-01 
9.655497e-01 
9.634347e-01 
9.622409e-01 
9.621126e-01 
9.632879e-01 
9.656976e-01 
9.692271e-01 
9.737765e-01 
9.792753e-01 
9.856763e-01 
9.929455e-01 
1.001056e+00 
1.009985e+00 
1.019709e+00 
1.030205e+00 
1.041451e+00 
1.053424e+00 
1.066101e+00 
1.079458e+00 
1.093472e+00 
1.108118e+00 
1.123372e+00 
1.139212e+00 
1.155616e+00 
1.172562e+00 
1.190029e+00 
1.207998e+00 
1.226448e+00 
1.245361e+00 
1.264718e+00 
1.284501e+00 
1.409624e+00 
1.387333e+00 
1.365346e+00 
1.343681e+00 
1.322351e+00 
1.301372e+00 
1.280756e+00 
1.260521e+00 
1.240683e+00 
1.221259e+00 
1.202268e+00 
1.183727e+00 
1.165657e+00 
1.148079e+00 
1.131014e+00 
1.114485e+00 
1.098512e+00 
1.083115e+00 
1.068317e+00 
1.054138e+00 
1.040600e+00 
1.027728e+00 
1.015545e+00 
1.004075e+00 
9.933422e-01 
9.833721e-01 
9.741881e-01 
9.658133e-01 
9.582699e-01 
9.515791e-01 
9.457605e-01 
9.408325e-01 
9.368129e-01 
9.337161e-01 
9.315525e-01 
9.303368e-01 
9.302408e-01 
9.315023e-01 
9.340261e-01 
9.376854e-01 
9.423775e-01 
9.480337e-01 
9.546083e-01 
9.620686e-01 
9.703878e-01 
9.795416e-01 
9.895062e-01 
1.000258e+00 
1.011773e+00 
1.024026e+00 
1.036993e+00 
1.050649e+00 
1.064970e+00 
1.079929e+00 
1.095502e+00 
1.111665e+00 
1.128394e+00 
1.145668e+00 
1.163464e+00 
1.181763e+00 
1.200542e+00 
1.219784e+00 
1.239468e+00 
1.259577e+00 
1.387073e+00 
1.364474e+00 
1.342176e+00 
1.320195e+00 
1.298545e+00 
1.277241e+00 
1.256298e+00 
1.235733e+00 
1.215561e+00 
1.195801e+00 
1.176471e+00 
1.157591e+00 
1.139181e+00 
1.121261e+00 
1.103855e+00 
1.086986e+00 
1.070675e+00 
1.054947e+00 
1.039821e+00 
1.025322e+00 
1.011472e+00 
9.982969e-01 
9.858205e-01 
9.740689e-01 
9.630683e-01 
9.528448e-01 
9.434238e-01 
9.348301e-01 
9.270878e-01 
9.202195e-01 
9.142465e-01 
9.091885e-01 
9.050643e-01 
9.018893e-01 
8.996745e-01 
8.984355e-01 
8.983767e-01 
8.997296e-01 
9.023713e-01 
9.061635e-01 
9.110028e-01 
9.168223e-01 
9.235782e-01 
9.312384e-01 
9.397761e-01 
9.491659e-01 
9.593829e-01 
9.704018e-01 
9.821970e-01 
9.947426e-01 
1.008012e+00 
1.021980e+00 
1.036620e+00 
1.051904e+00 
1.067807e+00 
1.084302e+00 
1.101368e+00 
1.118979e+00 
1.137114e+00 
1.155751e+00 
1.174869e+00 
1.194447e+00 
1.214465e+00 
1.234907e+00 
1.364836e+00 
1.341925e+00 
1.319311e+00 
1.297008e+00 
1.275033e+00 
1.253399e+00 
1.232122e+00 
1.211219e+00 
1.190707e+00 
1.170603e+00 
1.150927e+00 
1.131698e+00 
1.112938e+00 
1.094668e+00 
1.076911e+00 
1.059690e+00 
1.043031e+00 
1.026958e+00 
1.011493e+00 
9.966606e-01 
9.824855e-01 
9.689934e-01 
9.562107e-01 
9.441646e-01 
9.328830e-01 
9.223935e-01 
9.127233e-01 
9.038994e-01 
8.959475e-01 
8.888921e-01 
8.827561e-01 
8.775608e-01 
8.733263e-01 
8.700687e-01 
8.677999e-01 
8.665363e-01 
8.665202e-01 
8.679699e-01 
8.707330e-01 
8.746619e-01 
8.796533e-01 
8.856429e-01 
8.925886e-01 
9.004588e-01 
9.092259e-01 
9.188635e-01 
9.293452e-01 
9.406440e-01 
9.527328e-01 
9.655837e-01 
9.791691e-01 
9.934610e-01 
1.008432e+00 
1.024053e+00 
1.040297e+00 
1.057138e+00 
1.074550e+00 
1.092509e+00 
1.110992e+00 
1.129977e+00 
1.149441e+00 
1.169364e+00 
1.189725e+00 
1.210505e+00 
1.342926e+00 
1.319699e+00 
1.296764e+00 
1.274136e+00 
1.251829e+00 
1.229859e+00 
1.208242e+00 
1.186994e+00 
1.166133e+00 
1.145678e+00 
1.125647e+00 
1.106061e+00 
1.086942e+00 
1.068311e+00 
1.050193e+00 
1.032611e+00 
1.015591e+00 
9.991605e-01 
9.833428e-01 
9.681637e-01 
9.536491e-01 
9.398263e-01 
9.267232e-01 
9.143686e-01 
9.027921e-01 
8.920232e-01 
8.820909e-01 
8.730244e-01 
8.648515e-01 
8.575986e-01 
8.512905e-01 
8.459502e-01 
8.415990e-01 
8.382541e-01 
8.359284e-01 
8.346387e-01 
8.346713e-01 
8.362231e-01 
8.391114e-01 
8.431810e-01 
8.483302e-01 
8.544977e-01 
8.616427e-01 
8.697338e-01 
8.787424e-01 
8.886406e-01 
8.994004e-01 
9.109928e-01 
9.233888e-01 
9.365589e-01 
9.504733e-01 
9.651028e-01 
9.804180e-01 
9.963888e-01 
1.012986e+00 
1.030183e+00 
1.047953e+00 
1.066271e+00 
1.085113e+00 
1.104454e+00 
1.124274e+00 
1.144549e+00 
1.165260e+00 
1.186387e+00 
1.321367e+00 
1.297819e+00 
1.274557e+00 
1.251597e+00 
1.228953e+00 
1.206640e+00 
1.184675e+00 
1.163076e+00 
1.141859e+00 
1.121043e+00 
1.100649e+00 
1.080697e+00 
1.061209e+00 
1.042207e+00 
1.023717e+00 
1.005762e+00 
9.883697e-01 
9.715678e-01 
9.553829e-01 
9.398423e-01 
9.249735e-01 
9.108051e-01 
8.973665e-01 
8.846887e-01 
8.728028e-01 
8.617400e-01 
8.515319e-01 
8.422097e-01 
8.338035e-01 
8.263421e-01 
8.198523e-01 
8.143588e-01 
8.098844e-01 
8.064473e-01 
8.040614e-01 
8.027445e-01 
8.028316e-01 
8.044902e-01 
8.075071e-01 
8.117219e-01 
8.170356e-01 
8.233898e-01 
8.307451e-01 
8.390694e-01 
8.483330e-01 
8.585061e-01 
8.695585e-01 
8.814595e-01 
8.941777e-01 
9.076817e-01 
9.219400e-01 
9.369213e-01 
9.525947e-01 
9.689287e-01 
9.858928e-01 
1.003458e+00 
1.021598e+00 
1.040286e+00 
1.059496e+00 
1.079205e+00 
1.099389e+00 
1.120026e+00 
1.141095e+00 
1.162575e+00 
1.300169e+00 
1.276296e+00 
1.252703e+00 
1.229406e+00 
1.206419e+00 
1.183758e+00 
1.161440e+00 
1.139482e+00 
1.117902e+00 
1.096719e+00 
1.075953e+00 
1.055626e+00 
1.035759e+00 
1.016377e+00 
9.975040e-01 
9.791656e-01 
9.613895e-01 
9.442043e-01 
9.276394e-01 
9.117241e-01 
8.964875e-01 
8.819596e-01 
8.681718e-01 
8.551565e-01 
8.429470e-01 
8.315765e-01 
8.210788e-01 
8.114876e-01 
8.028357e-01 
7.951542e-01 
7.884723e-01 
7.828168e-01 
7.782121e-01 
7.746778e-01 
7.722290e-01 
7.708841e-01 
7.710183e-01 
7.727743e-01 
7.759173e-01 
7.802800e-01 
7.857650e-01 
7.923158e-01 
7.998935e-01 
8.084650e-01 
8.179987e-01 
8.284629e-01 
8.398249e-01 
8.520518e-01 
8.651098e-01 
8.789654e-01 
8.935850e-01 
9.089355e-01 
9.249840e-01 
9.416973e-01 
9.590435e-01 
9.769927e-01 
9.955165e-01 
1.014588e+00 
1.034180e+00 
1.054268e+00 
1.074828e+00 
1.095838e+00 
1.117275e+00 
1.139120e+00 
1.279332e+00 
1.255128e+00 
1.231203e+00 
1.207567e+00 
1.184234e+00 
1.161221e+00 
1.138544e+00 
1.116221e+00 
1.094271e+00 
1.072712e+00 
1.051566e+00 
1.030854e+00 
1.010599e+00 
9.908252e-01 
9.715575e-01 
9.528229e-01 
9.346495e-01 
9.170671e-01 
9.001068e-01 
8.837999e-01 
8.681779e-01 
8.532726e-01 
8.391174e-01 
8.257465e-01 
8.131950e-01 
8.014987e-01 
7.906939e-01 
7.808170e-01 
7.719035e-01 
7.639875e-01 
7.571005e-01 
7.512721e-01 
7.465285e-01 
7.428910e-01 
7.403756e-01 
7.390017e-01 
7.391999e-01 
7.410699e-01 
7.443490e-01 
7.488682e-01 
7.545345e-01 
7.612939e-01 
7.691079e-01 
7.779419e-01 
7.877622e-01 
7.985343e-01 
8.102230e-01 
8.227926e-01 
8.362073e-01 
8.504309e-01 
8.654278e-01 
8.811628e-01 
8.976013e-01 
9.147079e-01 
9.324497e-01 
9.507957e-01 
9.697163e-01 
9.891829e-01 
1.009169e+00 
1.029647e+00 
1.050595e+00 
1.071987e+00 
1.093802e+00 
1.116020e+00 
1.258878e+00 
1.234344e+00 
1.210082e+00 
1.186103e+00 
1.162420e+00 
1.139050e+00 
1.116009e+00 
1.093315e+00 
1.070988e+00 
1.049046e+00 
1.027511e+00 
1.006405e+00 
9.857514e-01 
9.655747e-01 
9.459010e-01 
9.267579e-01 
9.081743e-01 
8.901812e-01 
8.728107e-01 
8.560965e-01 
8.400723e-01 
8.247722e-01 
8.102315e-01 
7.964864e-01 
7.835746e-01 
7.715346e-01 
7.604053e-01 
7.502257e-01 
7.410348e-01 
7.328694e-01 
7.257643e-01 
7.197516e-01 
7.148598e-01 
7.111119e-01 
7.085252e-01 
7.071200e-01 
7.073873e-01 
7.093748e-01 
7.127935e-01 
7.174749e-01 
7.233311e-01 
7.303108e-01 
7.383748e-01 
7.474865e-01 
7.576094e-01 
7.687061e-01 
7.807383e-01 
7.936675e-01 
8.074550e-01 
8.220624e-01 
8.374516e-01 
8.535854e-01 
8.704272e-01 
8.879399e-01 
9.060892e-01 
9.248429e-01 
9.441701e-01 
9.640412e-01 
9.844283e-01 
1.005305e+00 
1.026645e+00 
1.048425e+00 
1.070622e+00 
1.093216e+00 
1.238828e+00 
1.213960e+00 
1.189359e+00 
1.165032e+00 
1.140995e+00 
1.117263e+00 
1.093853e+00 
1.070783e+00 
1.048071e+00 
1.025739e+00 
1.003807e+00 
9.822978e-01 
9.612354e-01 
9.406450e-01 
9.205535e-01 
9.009891e-01 
8.819820e-01 
8.635637e-01 
8.457680e-01 
8.286300e-01 
8.121861e-01 
7.964728e-01 
7.815276e-01 
7.673892e-01 
7.540977e-01 
7.416946e-01 
7.302216e-01 
7.197211e-01 
7.102352e-01 
7.018045e-01 
6.944670e-01 
6.882577e-01 
6.832079e-01 
6.793424e-01 
6.766800e-01 
6.752424e-01 
6.755846e-01 
6.776932e-01 
6.812555e-01 
6.861063e-01 
6.921634e-01 
6.993771e-01 
7.077073e-01 
7.171145e-01 
7.275590e-01 
7.389996e-01 
7.513949e-01 
7.647031e-01 
7.788825e-01 
7.938919e-01 
8.096909e-01 
8.262402e-01 
8.435010e-01 
8.614345e-01 
8.800053e-01 
8.991795e-01 
9.189252e-01 
9.392117e-01 
9.600101e-01 
9.812929e-01 
1.003034e+00 
1.025209e+00 
1.047795e+00 
1.070770e+00 
1.219197e+00 
1.193995e+00 
1.169050e+00 
1.144373e+00 
1.119978e+00 
1.095880e+00 
1.072096e+00 
1.048643e+00 
1.025542e+00 
1.002811e+00 
9.804741e-01 
9.585527e-01 
9.370716e-01 
9.160567e-01 
8.955354e-01 
8.755370e-01 
8.560924e-01 
8.372343e-01 
8.189976e-01 
8.014190e-01 
7.845371e-01 
7.683913e-01 
7.530217e-01 
7.384694e-01 
7.247775e-01 
7.119903e-01 
7.001532e-01 
6.893117e-01 
6.795119e-01 
6.707982e-01 
6.632124e-01 
6.567931e-01 
6.515745e-01 
6.475836e-01 
6.448407e-01 
6.433696e-01 
6.437925e-01 
6.460255e-01 
6.497358e-01 
6.547644e-01 
6.610346e-01 
6.684979e-01 
6.771121e-01 
6.868344e-01 
6.976210e-01 
7.094269e-01 
7.222066e-01 
7.359147e-01 
7.505065e-01 
7.659377e-01 
7.821655e-01 
7.991480e-01 
8.168444e-01 
8.352145e-01 
8.542212e-01 
8.738294e-01 
8.940060e-01 
9.147192e-01 
9.359392e-01 
9.576379e-01 
9.797885e-01 
1.002366e+00 
1.025347e+00 
1.048710e+00 
1.200004e+00 
1.174465e+00 
1.149175e+00 
1.124145e+00 
1.099388e+00 
1.074920e+00 
1.050757e+00 
1.026917e+00 
1.003419e+00 
9.802839e-01 
9.575337e-01 
9.351914e-01 
9.132819e-01 
8.918315e-01 
8.708686e-01 
8.504231e-01 
8.305270e-01 
8.112139e-01 
7.925201e-01 
7.744836e-01 
7.571451e-01 
7.405468e-01 
7.247316e-01 
7.097438e-01 
6.956292e-01 
6.824355e-01 
6.702117e-01 
6.590076e-01 
6.488731e-01 
6.398570e-01 
6.320056e-01 
6.253613e-01 
6.199620e-01 
6.158370e-01 
6.130086e-01 
6.115028e-01 
6.120116e-01 
6.143715e-01 
6.182349e-01 
6.234509e-01 
6.299480e-01 
6.376781e-01 
6.465959e-01 
6.566547e-01 
6.678059e-01 
6.799999e-01 
6.931869e-01 
7.073177e-01 
7.223438e-01 
7.382179e-01 
7.548944e-01 
7.723290e-01 
7.904786e-01 
8.093015e-01 
8.287591e-01 
8.488151e-01 
8.694351e-01 
8.905864e-01 
9.122384e-01 
9.343621e-01 
9.569305e-01 
9.799180e-01 
1.003301e+00 
1.027056e+00 
1.181266e+00 
1.155389e+00 
1.129753e+00 
1.104367e+00 
1.079245e+00 
1.054403e+00 
1.029857e+00 
1.005624e+00 
9.817245e-01 
9.581781e-01 
9.350073e-01 
9.122356e-01 
8.898882e-01 
8.679919e-01 
8.465758e-01 
8.256705e-01 
8.053087e-01 
7.855254e-01 
7.663579e-01 
7.478458e-01 
7.300317e-01 
7.129600e-01 
6.966772e-01 
6.812306e-01 
6.666695e-01 
6.530451e-01 
6.404106e-01 
6.288199e-01 
6.183279e-01 
6.089882e-01 
6.008519e-01 
5.939663e-01 
5.883729e-01 
5.841044e-01 
5.811849e-01 
5.796433e-01 
5.802424e-01 
5.827313e-01 
5.867534e-01 
5.921679e-01 
5.989076e-01 
6.069235e-01 
6.161665e-01 
6.265850e-01 
6.381250e-01 
6.507318e-01 
6.643510e-01 
6.789286e-01 
6.944125e-01 
7.107519e-01 
7.278982e-01 
7.458046e-01 
7.644258e-01 
7.837185e-01 
8.036425e-01 
8.241603e-01 
8.452363e-01 
8.668371e-01 
8.889313e-01 
9.114892e-01 
9.344833e-01 
9.578876e-01 
9.816779e-01 
1.005832e+00 
1.163016e+00 
1.136800e+00 
1.110814e+00 
1.085069e+00 
1.059579e+00 
1.034359e+00 
1.009425e+00 
9.847947e-01 
9.604871e-01 
9.365225e-01 
9.129235e-01 
8.897138e-01 
8.669189e-01 
8.445662e-01 
8.226850e-01 
8.013067e-01 
7.804648e-01 
7.601953e-01 
7.405367e-01 
7.215303e-01 
7.032202e-01 
6.856534e-01 
6.688793e-01 
6.529488e-01 
6.379151e-01 
6.238336e-01 
6.107618e-01 
5.987585e-01 
5.878838e-01 
5.781968e-01 
5.697543e-01 
5.626090e-01 
5.568071e-01 
5.523844e-01 
5.493676e-01 
5.477896e-01 
5.484854e-01 
5.511060e-01 
5.552942e-01 
5.609203e-01 
5.679205e-01 
5.762437e-01 
5.858360e-01 
5.966399e-01 
6.085954e-01 
6.216421e-01 
6.357200e-01 
6.507706e-01 
6.667374e-01 
6.835660e-01 
7.012045e-01 
7.196036e-01 
7.387156e-01 
7.584955e-01 
7.789018e-01 
7.998957e-01 
8.214406e-01 
8.435023e-01 
8.660488e-01 
8.890498e-01 
9.124773e-01 
9.363052e-01 
9.605089e-01 
9.850658e-01 
1.145286e+00 
1.118729e+00 
1.092391e+00 
1.066284e+00 
1.040422e+00 
1.014819e+00 
9.894927e-01 
9.644595e-01 
9.397382e-01 
9.153491e-01 
8.913144e-01 
8.676583e-01 
8.444065e-01 
8.215866e-01 
7.992283e-01 
7.773635e-01 
7.560267e-01 
7.352547e-01 
7.150873e-01 
6.955674e-01 
6.767406e-01 
6.586564e-01 
6.413668e-01 
6.249270e-01 
6.093942e-01 
5.948282e-01 
5.812912e-01 
5.688476e-01 
5.575631e-01 
5.475030e-01 
5.387307e-01 
5.313054e-01 
5.252786e-01 
5.206902e-01 
5.175696e-01 
5.159543e-01 
5.167411e-01 
5.194926e-01 
5.238560e-01 
5.297090e-01 
5.369902e-01 
5.456449e-01 
5.556134e-01 
5.668311e-01 
5.792315e-01 
5.927476e-01 
6.073136e-01 
6.228659e-01 
6.393433e-01 
6.566877e-01 
6.748437e-01 
6.937591e-01 
7.133838e-01 
7.336712e-01 
7.545784e-01 
7.760654e-01 
7.980948e-01 
8.206315e-01 
8.436428e-01 
8.670982e-01 
8.909693e-01 
9.152297e-01 
9.398548e-01 
9.648218e-01 
1.128049e+00 
1.101149e+00 
1.074462e+00 
1.047996e+00 
1.021764e+00 
9.957807e-01 
9.700617e-01 
9.446245e-01 
9.194875e-01 
8.946707e-01 
8.701960e-01 
8.460875e-01 
8.223710e-01 
7.990745e-01 
7.762281e-01 
7.538642e-01 
7.320180e-01 
7.107272e-01 
6.900329e-01 
6.699792e-01 
6.506138e-01 
6.319882e-01 
6.141573e-01 
5.971801e-01 
5.811181e-01 
5.660361e-01 
5.520018e-01 
5.390855e-01 
5.273594e-01 
5.168960e-01 
5.077663e-01 
5.000369e-01 
4.937663e-01 
4.889989e-01 
4.857668e-01 
4.841140e-01 
4.850074e-01 
4.878971e-01 
4.924475e-01 
4.985455e-01 
5.061310e-01 
5.151448e-01 
5.255195e-01 
5.371829e-01 
5.500605e-01 
5.640781e-01 
5.791637e-01 
5.952477e-01 
6.122644e-01 
6.301513e-01 
6.488497e-01 
6.683042e-01 
6.884623e-01 
7.092760e-01 
7.307012e-01 
7.526968e-01 
7.752243e-01 
7.982483e-01 
8.217356e-01 
8.456554e-01 
8.699791e-01 
8.946802e-01 
9.197341e-01 
9.451182e-01 
1.111344e+00 
1.084107e+00 
1.057074e+00 
1.030250e+00 
1.003648e+00 
9.772824e-01 
9.511697e-01 
9.253264e-01 
8.997706e-01 
8.745222e-01 
8.496027e-01 
8.250357e-01 
8.008472e-01 
7.770652e-01 
7.537201e-01 
7.308449e-01 
7.084752e-01 
6.866497e-01 
6.654104e-01 
6.448029e-01 
6.248768e-01 
6.056855e-01 
5.872869e-01 
5.697434e-01 
5.531212e-01 
5.374904e-01 
5.229246e-01 
5.095008e-01 
4.972986e-01 
4.863990e-01 
4.768815e-01 
4.688215e-01 
4.622853e-01 
4.573231e-01 
4.539700e-01 
4.522779e-01 
4.532795e-01 
4.563123e-01 
4.610611e-01 
4.674232e-01 
4.753380e-01 
4.847398e-01 
4.955525e-01 
5.076942e-01 
5.210818e-01 
5.356331e-01 
5.512690e-01 
5.679140e-01 
5.854970e-01 
6.039514e-01 
6.232147e-01 
6.432284e-01 
6.639380e-01 
6.852939e-01 
7.072504e-01 
7.297656e-01 
7.528003e-01 
7.763186e-01 
8.002869e-01 
8.246744e-01 
8.494526e-01 
8.745949e-01 
9.000769e-01 
9.258762e-01 
1.095196e+00 
1.067627e+00 
1.040248e+00 
1.013067e+00 
9.860967e-01 
9.593504e-01 
9.328438e-01 
9.065932e-01 
8.806168e-01 
8.549338e-01 
8.295656e-01 
8.045352e-01 
7.798682e-01 
7.555928e-01 
7.317394e-01 
7.083413e-01 
6.854347e-01 
6.630588e-01 
6.412567e-01 
6.200753e-01 
5.995656e-01 
5.797835e-01 
5.607895e-01 
5.426495e-01 
5.254342e-01 
5.092192e-01 
4.940848e-01 
4.801154e-01 
4.673991e-01 
4.560261e-01 
4.460865e-01 
4.376657e-01 
4.308396e-01 
4.256653e-01 
4.221808e-01 
4.204488e-01 
4.215585e-01 
4.247415e-01 
4.297036e-01 
4.363527e-01 
4.446266e-01 
4.544506e-01 
4.657378e-01 
4.783956e-01 
4.923306e-01 
5.074519e-01 
5.236726e-01 
5.409110e-01 
5.590904e-01 
5.781398e-01 
5.979931e-01 
6.185885e-01 
6.398696e-01 
6.617852e-01 
6.842885e-01 
7.073363e-01 
7.308891e-01 
7.549104e-01 
7.793668e-01 
8.042274e-01 
8.294638e-01 
8.550496e-01 
8.809609e-01 
9.071754e-01 
1.079627e+00 
1.051728e+00 
1.024008e+00 
9.964739e-01 
9.691371e-01 
9.420115e-01 
9.151119e-01 
8.884545e-01 
8.620566e-01 
8.359374e-01 
8.101176e-01 
7.846200e-01 
7.594695e-01 
7.346939e-01 
7.103236e-01 
6.863921e-01 
6.629359e-01 
6.399947e-01 
6.176124e-01 
5.958368e-01 
5.747207e-01 
5.543220e-01 
5.347038e-01 
5.159354e-01 
4.980922e-01 
4.812553e-01 
4.655121e-01 
4.509553e-01 
4.376824e-01 
4.257944e-01 
4.153934e-01 
4.065773e-01 
3.994334e-01 
3.940270e-01 
3.903994e-01 
3.886267e-01 
3.898437e-01 
3.931854e-01 
3.983783e-01 
4.053416e-01 
4.140088e-01 
4.242940e-01 
4.360972e-01 
4.493130e-01 
4.638367e-01 
4.795675e-01 
4.964104e-01 
5.142766e-01 
5.330840e-01 
5.527569e-01 
5.732256e-01 
5.944254e-01 
6.162981e-01 
6.387910e-01 
6.618559e-01 
6.854490e-01 
7.095302e-01 
7.340631e-01 
7.590141e-01 
7.843526e-01 
8.100505e-01 
8.360819e-01 
8.624232e-01 
8.890526e-01 
1.064658e+00 
1.036436e+00 
1.008379e+00 
9.804951e-01 
9.527956e-01 
9.252937e-01 
8.980035e-01 
8.709407e-01 
8.441221e-01 
8.175663e-01 
7.912935e-01 
7.653260e-01 
7.396883e-01 
7.144072e-01 
6.895129e-01 
6.650387e-01 
6.410214e-01 
6.175009e-01 
5.945216e-01 
5.721323e-01 
5.503871e-01 
5.293455e-01 
5.090735e-01 
4.896437e-01 
4.711357e-01 
4.536367e-01 
4.372412e-01 
4.220509e-01 
4.081741e-01 
3.957241e-01 
3.848169e-01 
3.755656e-01 
3.680715e-01 
3.624103e-01 
3.586259e-01 
3.568119e-01 
3.581348e-01 
3.616451e-01 
3.670895e-01 
3.743985e-01 
3.834988e-01 
3.942899e-01 
4.066558e-01 
4.204765e-01 
4.356344e-01 
4.520178e-01 
4.695226e-01 
4.880530e-01 
5.075211e-01 
5.278467e-01 
5.489563e-01 
5.707831e-01 
5.932668e-01 
6.163535e-01 
6.399940e-01 
6.641439e-01 
6.887629e-01 
7.138145e-01 
7.392654e-01 
7.650853e-01 
7.912467e-01 
8.177243e-01 
8.444951e-01 
8.715378e-01 
1.050312e+00 
1.021773e+00 
9.933848e-01 
9.651564e-01 
9.370988e-01 
9.092246e-01 
8.815474e-01 
8.540820e-01 
8.268447e-01 
7.998534e-01 
7.731278e-01 
7.466893e-01 
7.205619e-01 
6.947716e-01 
6.693480e-01 