# vtk DataFile Version 2.0 
Quadtree Mesh 
ASCII 
DATASET UNSTRUCTURED_GRID 
POINTS 4096 double 
-1.000000e+00 -1.000000e+00 0.000000e+00
-9.682540e-01 -1.000000e+00 0.000000e+00
-9.365079e-01 -1.000000e+00 0.000000e+00
-9.047619e-01 -1.000000e+00 0.000000e+00
-8.730159e-01 -1.000000e+00 0.000000e+00
-8.412698e-01 -1.000000e+00 0.000000e+00
-8.095238e-01 -1.000000e+00 0.000000e+00
-7.777778e-01 -1.000000e+00 0.000000e+00
-7.460317e-01 -1.000000e+00 0.000000e+00
-7.142857e-01 -1.000000e+00 0.000000e+00
-6.825397e-01 -1.000000e+00 0.000000e+00
-6.507937e-01 -1.000000e+00 0.000000e+00
-6.190476e-01 -1.000000e+00 0.000000e+00
-5.873016e-01 -1.000000e+00 0.000000e+00
-5.555556e-01 -1.000000e+00 0.000000e+00
-5.238095e-01 -1.000000e+00 0.000000e+00
-4.920635e-01 -1.000000e+00 0.000000e+00
-4.603175e-01 -1.000000e+00 0.000000e+00
-4.285714e-01 -1.000000e+00 0.000000e+00
-3.968254e-01 -1.000000e+00 0.000000e+00
-3.650794e-01 -1.000000e+00 0.000000e+00
-3.333333e-01 -1.000000e+00 0.000000e+00
-3.015873e-01 -1.000000e+00 0.000000e+00
-2.698413e-01 -1.000000e+00 0.000000e+00
-2.380952e-01 -1.000000e+00 0.000000e+00
-2.063492e-01 -1.000000e+00 0.000000e+00
-1.746032e-01 -1.000000e+00 0.000000e+00
-1.428571e-01 -1.000000e+00 0.000000e+00
-1.111111e-01 -1.000000e+00 0.000000e+00
-7.936508e-02 -1.000000e+00 0.000000e+00
-4.761905e-02 -1.000000e+00 0.000000e+00
-1.587302e-02 -1.000000e+00 0.000000e+00
1.587302e-02 -1.000000e+00 0.000000e+00
4.761905e-02 -1.000000e+00 0.000000e+00
7.936508e-02 -1.000000e+00 0.000000e+00
1.111111e-01 -1.000000e+00 0.000000e+00
1.428571e-01 -1.000000e+00 0.000000e+00
1.746032e-01 -1.000000e+00 0.000000e+00
2.063492e-01 -1.000000e+00 0.000000e+00
2.380952e-01 -1.000000e+00 0.000000e+00
2.698413e-01 -1.000000e+00 0.000000e+00
3.015873e-01 -1.000000e+00 0.000000e+00
3.333333e-01 -1.000000e+00 0.000000e+00
3.650794e-01 -1.000000e+00 0.000000e+00
3.968254e-01 -1.000000e+00 0.000000e+00
4.285714e-01 -1.000000e+00 0.000000e+00
4.603175e-01 -1.000000e+00 0.000000e+00
4.920635e-01 -1.000000e+00 0.000000e+00
5.238095e-01 -1.000000e+00 0.000000e+00
5.555556e-01 -1.000000e+00 0.000000e+00
5.873016e-01 -1.000000e+00 0.000000e+00
6.190476e-01 -1.000000e+00 0.000000e+00
6.507937e-01 -1.000000e+00 0.000000e+00
6.825397e-01 -1.000000e+00 0.000000e+00
7.142857e-01 -1.000000e+00 0.000000e+00
7.460317e-01 -1.000000e+00 0.000000e+00
7.777778e-01 -1.000000e+00 0.000000e+00
8.095238e-01 -1.000000e+00 0.000000e+00
8.412698e-01 -1.000000e+00 0.000000e+00
8.730159e-01 -1.000000e+00 0.000000e+00
9.047619e-01 -1.000000e+00 0.000000e+00
9.365079e-01 -1.000000e+00 0.000000e+00
9.682540e-01 -1.000000e+00 0.000000e+00
1.000000e+00 -1.000000e+00 0.000000e+00
-1.000000e+00 -9.682540e-01 0.000000e+00
-9.682540e-01 -9.682540e-01 0.000000e+00
-9.365079e-01 -9.682540e-01 0.000000e+00
-9.047619e-01 -9.682540e-01 0.000000e+00
-8.730159e-01 -9.682540e-01 0.000000e+00
-8.412698e-01 -9.682540e-01 0.000000e+00
-8.095238e-01 -9.682540e-01 0.000000e+00
-7.777778e-01 -9.682540e-01 0.000000e+00
-7.460317e-01 -9.682540e-01 0.000000e+00
-7.142857e-01 -9.682540e-01 0.000000e+00
-6.825397e-01 -9.682540e-01 0.000000e+00
-6.507937e-01 -9.682540e-01 0.000000e+00
-6.190476e-01 -9.682540e-01 0.000000e+00
-5.873016e-01 -9.682540e-01 0.000000e+00
-5.555556e-01 -9.682540e-01 0.000000e+00
-5.238095e-01 -9.682540e-01 0.000000e+00
-4.920635e-01 -9.682540e-01 0.000000e+00
-4.603175e-01 -9.682540e-01 0.000000e+00
-4.285714e-01 -9.682540e-01 0.000000e+00
-3.968254e-01 -9.682540e-01 0.000000e+00
-3.650794e-01 -9.682540e-01 0.000000e+00
-3.333333e-01 -9.682540e-01 0.000000e+00
-3.015873e-01 -9.682540e-01 0.000000e+00
-2.698413e-01 -9.682540e-01 0.000000e+00
-2.380952e-01 -9.682540e-01 0.000000e+00
-2.063492e-01 -9.682540e-01 0.000000e+00
-1.746032e-01 -9.682540e-01 0.000000e+00
-1.428571e-01 -9.682540e-01 0.000000e+00
-1.111111e-01 -9.682540e-01 0.000000e+00
-7.936508e-02 -9.682540e-01 0.000000e+00
-4.761905e-02 -9.682540e-01 0.000000e+00
-1.587302e-02 -9.682540e-01 0.000000e+00
1.587302e-02 -9.682540e-01 0.000000e+00
4.761905e-02 -9.682540e-01 0.000000e+00
7.936508e-02 -9.682540e-01 0.000000e+00
1.111111e-01 -9.682540e-01 0.000000e+00
1.428571e-01 -9.682540e-01 0.000000e+00
1.746032e-01 -9.682540e-01 0.000000e+00
2.063492e-01 -9.682540e-01 0.000000e+00
2.380952e-01 -9.682540e-01 0.000000e+00
2.698413e-01 -9.682540e-01 0.000000e+00
3.015873e-01 -9.682540e-01 0.000000e+00
3.333333e-01 -9.682540e-01 0.000000e+00
3.650794e-01 -9.682540e-01 0.000000e+00
3.968254e-01 -9.682540e-01 0.000000e+00
4.285714e-01 -9.682540e-01 0.000000e+00
4.603175e-01 -9.682540e-01 0.000000e+00
4.920635e-01 -9.682540e-01 0.000000e+00
5.238095e-01 -9.682540e-01 0.000000e+00
5.555556e-01 -9.682540e-01 0.000000e+00
5.873016e-01 -9.682540e-01 0.000000e+00
6.190476e-01 -9.682540e-01 0.000000e+00
6.507937e-01 -9.682540e-01 0.000000e+00
6.825397e-01 -9.682540e-01 0.000000e+00
7.142857e-01 -9.682540e-01 0.000000e+00
7.460317e-01 -9.682540e-01 0.000000e+00
7.777778e-01 -9.682540e-01 0.000000e+00
8.095238e-01 -9.682540e-01 0.000000e+00
8.412698e-01 -9.682540e-01 0.000000e+00
8.730159e-01 -9.682540e-01 0.000000e+00
9.047619e-01 -9.682540e-01 0.000000e+00
9.365079e-01 -9.682540e-01 0.000000e+00
9.682540e-01 -9.682540e-01 0.000000e+00
1.000000e+00 -9.682540e-01 0.000000e+00
-1.000000e+00 -9.365079e-01 0.000000e+00
-9.682540e-01 -9.365079e-01 0.000000e+00
-9.365079e-01 -9.365079e-01 0.000000e+00
-9.047619e-01 -9.365079e-01 0.000000e+00
-8.730159e-01 -9.365079e-01 0.000000e+00
-8.412698e-01 -9.365079e-01 0.000000e+00
-8.095238e-01 -9.365079e-01 0.000000e+00
-7.777778e-01 -9.365079e-01 0.000000e+00
-7.460317e-01 -9.365079e-01 0.000000e+00
-7.142857e-01 -9.365079e-01 0.000000e+00
-6.825397e-01 -9.365079e-01 0.000000e+00
-6.507937e-01 -9.365079e-01 0.000000e+00
-6.190476e-01 -9.365079e-01 0.000000e+00
-5.873016e-01 -9.365079e-01 0.000000e+00
-5.555556e-01 -9.365079e-01 0.000000e+00
-5.238095e-01 -9.365079e-01 0.000000e+00
-4.920635e-01 -9.365079e-01 0.000000e+00
-4.603175e-01 -9.365079e-01 0.000000e+00
-4.285714e-01 -9.365079e-01 0.000000e+00
-3.968254e-01 -9.365079e-01 0.000000e+00
-3.650794e-01 -9.365079e-01 0.000000e+00
-3.333333e-01 -9.365079e-01 0.000000e+00
-3.015873e-01 -9.365079e-01 0.000000e+00
-2.698413e-01 -9.365079e-01 0.000000e+00
-2.380952e-01 -9.365079e-01 0.000000e+00
-2.063492e-01 -9.365079e-01 0.000000e+00
-1.746032e-01 -9.365079e-01 0.000000e+00
-1.428571e-01 -9.365079e-01 0.000000e+00
-1.111111e-01 -9.365079e-01 0.000000e+00
-7.936508e-02 -9.365079e-01 0.000000e+00
-4.761905e-02 -9.365079e-01 0.000000e+00
-1.587302e-02 -9.365079e-01 0.000000e+00
1.587302e-02 -9.365079e-01 0.000000e+00
4.761905e-02 -9.365079e-01 0.000000e+00
7.936508e-02 -9.365079e-01 0.000000e+00
1.111111e-01 -9.365079e-01 0.000000e+00
1.428571e-01 -9.365079e-01 0.000000e+00
1.746032e-01 -9.365079e-01 0.000000e+00
2.063492e-01 -9.365079e-01 0.000000e+00
2.380952e-01 -9.365079e-01 0.000000e+00
2.698413e-01 -9.365079e-01 0.000000e+00
3.015873e-01 -9.365079e-01 0.000000e+00
3.333333e-01 -9.365079e-01 0.000000e+00
3.650794e-01 -9.365079e-01 0.000000e+00
3.968254e-01 -9.365079e-01 0.000000e+00
4.285714e-01 -9.365079e-01 0.000000e+00
4.603175e-01 -9.365079e-01 0.000000e+00
4.920635e-01 -9.365079e-01 0.000000e+00
5.238095e-01 -9.365079e-01 0.000000e+00
5.555556e-01 -9.365079e-01 0.000000e+00
5.873016e-01 -9.365079e-01 0.000000e+00
6.190476e-01 -9.365079e-01 0.000000e+00
6.507937e-01 -9.365079e-01 0.000000e+00
6.825397e-01 -9.365079e-01 0.000000e+00
7.142857e-01 -9.365079e-01 0.000000e+00
7.460317e-01 -9.365079e-01 0.000000e+00
7.777778e-01 -9.365079e-01 0.000000e+00
8.095238e-01 -9.365079e-01 0.000000e+00
8.412698e-01 -9.365079e-01 0.000000e+00
8.730159e-01 -9.365079e-01 0.000000e+00
9.047619e-01 -9.365079e-01 0.000000e+00
9.365079e-01 -9.365079e-01 0.000000e+00
9.682540e-01 -9.365079e-01 0.000000e+00
1.000000e+00 -9.365079e-01 0.000000e+00
-1.000000e+00 -9.047619e-01 0.000000e+00
-9.682540e-01 -9.047619e-01 0.000000e+00
-9.365079e-01 -9.047619e-01 0.000000e+00
-9.047619e-01 -9.047619e-01 0.000000e+00
-8.730159e-01 -9.047619e-01 0.000000e+00
-8.412698e-01 -9.047619e-01 0.000000e+00
-8.095238e-01 -9.047619e-01 0.000000e+00
-7.777778e-01 -9.047619e-01 0.000000e+00
-7.460317e-01 -9.047619e-01 0.000000e+00
-7.142857e-01 -9.047619e-01 0.000000e+00
-6.825397e-01 -9.047619e-01 0.000000e+00
-6.507937e-01 -9.047619e-01 0.000000e+00
-6.190476e-01 -9.047619e-01 0.000000e+00
-5.873016e-01 -9.047619e-01 0.000000e+00
-5.555556e-01 -9.047619e-01 0.000000e+00
-5.238095e-01 -9.047619e-01 0.000000e+00
-4.920635e-01 -9.047619e-01 0.000000e+00
-4.603175e-01 -9.047619e-01 0.000000e+00
-4.285714e-01 -9.047619e-01 0.000000e+00
-3.968254e-01 -9.047619e-01 0.000000e+00
-3.650794e-01 -9.047619e-01 0.000000e+00
-3.333333e-01 -9.047619e-01 0.000000e+00
-3.015873e-01 -9.047619e-01 0.000000e+00
-2.698413e-01 -9.047619e-01 0.000000e+00
-2.380952e-01 -9.047619e-01 0.000000e+00
-2.063492e-01 -9.047619e-01 0.000000e+00
-1.746032e-01 -9.047619e-01 0.000000e+00
-1.428571e-01 -9.047619e-01 0.000000e+00
-1.111111e-01 -9.047619e-01 0.000000e+00
-7.936508e-02 -9.047619e-01 0.000000e+00
-4.761905e-02 -9.047619e-01 0.000000e+00
-1.587302e-02 -9.047619e-01 0.000000e+00
1.587302e-02 -9.047619e-01 0.000000e+00
4.761905e-02 -9.047619e-01 0.000000e+00
7.936508e-02 -9.047619e-01 0.000000e+00
1.111111e-01 -9.047619e-01 0.000000e+00
1.428571e-01 -9.047619e-01 0.000000e+00
1.746032e-01 -9.047619e-01 0.000000e+00
2.063492e-01 -9.047619e-01 0.000000e+00
2.380952e-01 -9.047619e-01 0.000000e+00
2.698413e-01 -9.047619e-01 0.000000e+00
3.015873e-01 -9.047619e-01 0.000000e+00
3.333333e-01 -9.047619e-01 0.000000e+00
3.650794e-01 -9.047619e-01 0.000000e+00
3.968254e-01 -9.047619e-01 0.000000e+00
4.285714e-01 -9.047619e-01 0.000000e+00
4.603175e-01 -9.047619e-01 0.000000e+00
4.920635e-01 -9.047619e-01 0.000000e+00
5.238095e-01 -9.047619e-01 0.000000e+00
5.555556e-01 -9.047619e-01 0.000000e+00
5.873016e-01 -9.047619e-01 0.000000e+00
6.190476e-01 -9.047619e-01 0.000000e+00
[...]
POINT_DATA 4096 
SCALARS concentration double 1 
LOOKUP_TABLE default 
1.425033e+00 
1.405170e+00 
1.385685e+00 
1.366580e+00 
1.347867e+00 
1.329561e+00 
1.311675e+00 
1.294226e+00 
1.277231e+00 
1.260709e+00 
1.244675e+00 
1.229149e+00 
1.214147e+00 
1.199688e+00 
1.185790e+00 
1.172473e+00 
1.159754e+00 
1.147652e+00 
1.136188e+00 
1.125380e+00 
1.115246e+00 
1.105807e+00 
1.097080e+00 
1.089083e+00 
1.081835e+00 
1.075352e+00 
1.069652e+00 
1.064751e+00 
1.060668e+00 
1.057418e+00 
1.055012e+00 
1.053461e+00 
1.052787e+00 
1.053359e+00 
1.055246e+00 
1.058269e+00 
1.062295e+00 
1.067245e+00 
1.073066e+00 
1.079724e+00 
1.087192e+00 
1.095443e+00 
1.104456e+00 
1.114208e+00 
1.124679e+00 
1.135848e+00 
1.147695e+00 
1.160198e+00 
1.173339e+00 
1.187096e+00 
1.201450e+00 
1.216381e+00 
1.231870e+00 
1.247897e+00 
1.264443e+00 
1.281490e+00 
1.299021e+00 
1.317018e+00 
1.335463e+00 
1.354340e+00 
1.373631e+00 
1.393321e+00 
1.413394e+00 
1.433837e+00 
1.400289e+00 
1.380128e+00 
1.360344e+00 
1.340940e+00 
1.321926e+00 
1.303319e+00 
1.285133e+00 
1.267383e+00 
1.250088e+00 
1.233267e+00 
1.216937e+00 
1.201117e+00 
1.185825e+00 
1.171080e+00 
1.156902e+00 
1.143309e+00 
1.130323e+00 
1.117963e+00 
1.106249e+00 
1.095201e+00 
1.084839e+00 
1.075184e+00 
1.066255e+00 
1.058071e+00 
1.050651e+00 
1.044014e+00 
1.038178e+00 
1.033160e+00 
1.028979e+00 
1.025653e+00 
1.023194e+00 
1.021616e+00 
1.020943e+00 
1.021585e+00 
1.023580e+00 
1.026723e+00 
1.030880e+00 
1.035973e+00 
1.041952e+00 
1.048782e+00 
1.056436e+00 
1.064889e+00 
1.074117e+00 
1.084098e+00 
1.094808e+00 
1.106228e+00 
1.118336e+00 
1.131109e+00 
1.144527e+00 
1.158569e+00 
1.173213e+00 
1.188439e+00 
1.204227e+00 
1.220556e+00 
1.237408e+00 
1.254762e+00 
1.272601e+00 
1.290906e+00 
1.309659e+00 
1.328843e+00 
1.348439e+00 
1.368433e+00 
1.388809e+00 
1.409553e+00 
1.375790e+00 
1.355326e+00 
1.335237e+00 
1.315526e+00 
1.296205e+00 
1.277289e+00 
1.258794e+00 
1.240736e+00 
1.223133e+00 
1.206004e+00 
1.189368e+00 
1.173245e+00 
1.157653e+00 
1.142613e+00 
1.128144e+00 
1.114267e+00 
1.101003e+00 
1.088374e+00 
1.076400e+00 
1.065102e+00 
1.054502e+00 
1.044622e+00 
1.035481e+00 
1.027101e+00 
1.019502e+00 
1.012703e+00 
1.006724e+00 
1.001584e+00 
9.973007e-01 
9.938951e-01 
9.913811e-01 
9.897740e-01 
9.891030e-01 
9.898229e-01 
9.919285e-01 
9.951922e-01 
9.994828e-01 
1.004724e+00 
1.010866e+00 
1.017876e+00 
1.025725e+00 
1.034387e+00 
1.043839e+00 
1.054056e+00 
1.065016e+00 
1.076697e+00 
1.089074e+00 
1.102127e+00 
1.115832e+00 
1.130167e+00 
1.145110e+00 
1.160640e+00 
1.176735e+00 
1.193374e+00 
1.210538e+00 
1.228205e+00 
1.246358e+00 
1.264977e+00 
1.284043e+00 
1.303538e+00 
1.323445e+00 
1.343746e+00 
1.364429e+00 
1.385476e+00 
1.351548e+00 
1.330774e+00 
1.310374e+00 
1.290349e+00 
1.270714e+00 
1.251482e+00 
1.232671e+00 
1.214295e+00 
1.196375e+00 
1.178930e+00 
1.161979e+00 
1.145543e+00 
1.129641e+00 
1.114295e+00 
1.099525e+00 
1.085354e+00 
1.071802e+00 
1.058892e+00 
1.046647e+00 
1.035089e+00 
1.024241e+00 
1.014125e+00 
1.004763e+00 
9.961777e-01 
9.883904e-01 
9.814221e-01 
9.752931e-01 
9.700233e-01 
9.656333e-01 
9.621443e-01 
9.595725e-01 
9.579352e-01 
9.572684e-01 
9.580715e-01 
9.602899e-01 
9.636777e-01 
9.681061e-01 
9.735003e-01 
9.798123e-01 
9.870087e-01 
9.950610e-01 
1.003942e+00 
1.013628e+00 
1.024092e+00 
1.035312e+00 
1.047264e+00 
1.059922e+00 
1.073265e+00 
1.087267e+00 
1.101907e+00 
1.117159e+00 
1.133003e+00 
1.149414e+00 
1.166373e+00 
1.183858e+00 
1.201847e+00 
1.220322e+00 
1.239262e+00 
1.258648e+00 
1.278461e+00 
1.298684e+00 
1.319300e+00 
1.340294e+00 
1.361650e+00 
1.327574e+00 
1.306484e+00 
1.285766e+00 
1.265422e+00 
1.245464e+00 
1.225909e+00 
1.206773e+00 
1.188073e+00 
1.169827e+00 
1.152056e+00 
1.134781e+00 
1.118021e+00 
1.101800e+00 
1.086137e+00 
1.071055e+00 
1.056577e+00 
1.042726e+00 
1.029525e+00 
1.016998e+00 
1.005168e+00 
9.940597e-01 
9.836971e-01 
9.741038e-01 
9.653033e-01 
9.573185e-01 
9.501718e-01 
9.438852e-01 
9.384798e-01 
9.339772e-01 
9.304004e-01 
9.277678e-01 
9.260992e-01 
9.254386e-01 
9.263320e-01 
9.286648e-01 
9.321798e-01 
9.367505e-01 
9.423038e-01 
9.487929e-01 
9.561845e-01 
9.644493e-01 
9.735596e-01 
9.834890e-01 
9.942119e-01 
1.005703e+00 
1.017937e+00 
1.030888e+00 
1.044532e+00 
1.058844e+00 
1.073798e+00 
1.089371e+00 
1.105539e+00 
1.122278e+00 
1.139566e+00 
1.157381e+00 
1.175701e+00 
1.194506e+00 
1.213776e+00 
1.233490e+00 
1.253628e+00 
1.274174e+00 
1.295111e+00 
1.316422e+00 
1.338093e+00 
1.303880e+00 
1.282469e+00 
1.261427e+00 
1.240756e+00 
1.220469e+00 
1.200582e+00 
1.181113e+00 
1.162079e+00 
1.143499e+00 
1.125393e+00 
1.107783e+00 
1.090691e+00 
1.074138e+00 
1.058148e+00 
1.042743e+00 
1.027947e+00 
1.013784e+00 
1.000279e+00 
9.874576e-01 
9.753440e-01 
9.639641e-01 
9.533434e-01 
9.435072e-01 
9.344805e-01 
9.262880e-01 
9.189537e-01 
9.125010e-01 
9.069527e-01 
9.023317e-01 
8.986623e-01 
8.959658e-01 
8.942646e-01 
8.936132e-01 
8.946043e-01 
8.970539e-01 
9.006999e-01 
9.054181e-01 
9.111373e-01 
9.178116e-01 
9.254076e-01 
9.338950e-01 
9.432449e-01 
9.534299e-01 
9.644229e-01 
9.761971e-01 
9.887257e-01 
1.001982e+00 
1.015939e+00 
1.030572e+00 
1.045853e+00 
1.061757e+00 
1.078260e+00 
1.095337e+00 
1.112964e+00 
1.131119e+00 
1.149779e+00 
1.168924e+00 
1.188531e+00 
1.208580e+00 
1.229051e+00 
1.249927e+00 
1.271190e+00 
1.292825e+00 
1.314816e+00 
1.280483e+00 
1.258746e+00 
1.237374e+00 
1.216368e+00 
1.195744e+00 
1.175518e+00 
1.155708e+00 
1.136331e+00 
1.117406e+00 
1.098956e+00 
1.081000e+00 
1.063564e+00 
1.046669e+00 
1.030339e+00 
1.014599e+00 
9.994723e-01 
9.849854e-01 
9.711642e-01 
9.580350e-01 
9.456246e-01 
9.339601e-01 
9.230686e-01 
9.129771e-01 
9.037126e-01 
8.953013e-01 
8.877692e-01 
8.811414e-01 
8.754423e-01 
8.706963e-01 
8.669292e-01 
8.641652e-01 
8.624301e-01 
8.617915e-01 
8.628880e-01 
8.654577e-01 
8.692392e-01 
8.741110e-01 
8.800037e-01 
8.868722e-01 
8.946827e-01 
9.034036e-01 
9.130050e-01 
9.234578e-01 
9.347335e-01 
9.468037e-01 
9.596398e-01 
9.732137e-01 
9.874971e-01 
1.002462e+00 
1.018082e+00 
1.034330e+00 
1.051179e+00 
1.068604e+00 
1.086581e+00 
1.105086e+00 
1.124096e+00 
1.143588e+00 
1.163541e+00 
1.183932e+00 
1.204744e+00 
1.225956e+00 
1.247553e+00 
1.269517e+00 
1.291833e+00 
1.257414e+00 
1.235347e+00 
1.213637e+00 
1.192289e+00 
1.171319e+00 
1.150745e+00 
1.130583e+00 
1.110852e+00 
1.091573e+00 
1.072766e+00 
1.054455e+00 
1.036662e+00 
1.019412e+00 
1.002730e+00 
9.866403e-01 
9.711697e-01 
9.563447e-01 
9.421928e-01 
9.287419e-01 
9.160205e-01 
9.040572e-01 
8.928811e-01 
8.825211e-01 
8.730058e-01 
8.643638e-01 
8.566227e-01 
8.498097e-01 
8.439511e-01 
8.390730e-01 
8.352026e-01 
8.323674e-01 
8.305966e-01 
8.299748e-01 
8.311821e-01 
8.338755e-01 
8.377975e-01 
8.428295e-01 
8.489040e-01 
8.559766e-01 
8.640127e-01 
8.729792e-01 
8.828449e-01 
8.935790e-01 
9.051512e-01 
9.175311e-01 
9.306888e-01 
9.445939e-01 
9.592170e-01 
9.745285e-01 
9.904998e-01 
1.007103e+00 
1.024310e+00 
1.042096e+00 
1.060433e+00 
1.079298e+00 
1.098667e+00 
1.118516e+00 
1.138822e+00 
1.159565e+00 
1.180724e+00 
1.202280e+00 
1.224217e+00 
1.246516e+00 
1.269162e+00 
1.234686e+00 
1.212278e+00 
1.190223e+00 
1.168526e+00 
1.147202e+00 
1.126271e+00 
1.105749e+00 
1.085656e+00 
1.066012e+00 
1.046839e+00 
1.028160e+00 
1.010000e+00 
9.923842e-01 
9.753374e-01 
9.588866e-01 
9.430591e-01 
9.278829e-01 
9.133869e-01 
8.996008e-01 
8.865547e-01 
8.742791e-01 
8.628049e-01 
8.521631e-01 
8.423845e-01 
8.334996e-01 
8.255383e-01 
8.185298e-01 
8.125026e-01 
8.074846e-01 
8.035046e-01 
8.005936e-01 
7.987841e-01 
7.981770e-01 
7.994794e-01 
8.022930e-01 
8.063573e-01 
8.115548e-01 
8.178191e-01 
8.251060e-01 
8.333794e-01 
8.426049e-01 
8.527493e-01 
8.637798e-01 
8.756642e-01 
8.883702e-01 
9.018655e-01 
9.161184e-01 
9.310972e-01 
9.467710e-01 
9.631096e-01 
9.800835e-01 
9.976640e-01 
1.015824e+00 
1.034535e+00 
1.053774e+00 
1.073514e+00 
1.093732e+00 
1.114403e+00 
1.135507e+00 
1.157024e+00 
1.178934e+00 
1.201219e+00 
1.223861e+00 
1.246845e+00 
1.212261e+00 
1.189506e+00 
1.167101e+00 
1.145050e+00 
1.123368e+00 
1.102074e+00 
1.081185e+00 
1.060722e+00 
1.040705e+00 
1.021157e+00 
1.002102e+00 
9.835636e-01 
9.655695e-01 
9.481460e-01 
9.313209e-01 
9.151227e-01 
8.995810e-01 
8.847264e-01 
8.705900e-01 
8.572040e-01 
8.446007e-01 
8.328133e-01 
8.218748e-01 
8.118183e-01 
8.026768e-01 
7.944825e-01 
7.872670e-01 
7.810611e-01 
7.758947e-01 
7.717989e-01 
7.688077e-01 
7.669581e-01 
7.663747e-01 
7.677911e-01 
7.707353e-01 
7.749506e-01 
7.803234e-01 
7.867885e-01 
7.943022e-01 
8.028267e-01 
8.123256e-01 
8.227637e-01 
8.341061e-01 
8.463181e-01 
8.593654e-01 
8.732135e-01 
8.878287e-01 
9.031776e-01 
9.192274e-01 
9.359465e-01 
9.533039e-01 
9.712696e-01 
9.898149e-01 
1.008912e+00 
1.028534e+00 
1.048656e+00 
1.069251e+00 
1.090296e+00 
1.111770e+00 
1.133653e+00 
1.155923e+00 
1.178564e+00 
1.201557e+00 
1.224886e+00 
1.190186e+00 
1.167083e+00 
1.144323e+00 
1.121911e+00 
1.099864e+00 
1.078198e+00 
1.056934e+00 
1.036092e+00 
1.015693e+00 
9.957590e-01 
9.763152e-01 
9.573872e-01 
9.390025e-01 
9.211889e-01 
9.039754e-01 
8.873919e-01 
8.714696e-01 
8.562406e-01 
8.417380e-01 
8.279957e-01 
8.150484e-01 
8.029314e-01 
7.916802e-01 
7.813304e-01 
7.719175e-01 
7.634764e-01 
7.560413e-01 
7.496455e-01 
7.443216e-01 
7.401026e-01 
7.370260e-01 
7.351336e-01 
7.345790e-01 
7.361139e-01 
7.391926e-01 
7.435652e-01 
7.491217e-01 
7.557987e-01 
7.635519e-01 
7.723415e-01 
7.821291e-01 
7.928767e-01 
8.045472e-01 
8.171032e-01 
8.305078e-01 
8.447246e-01 
8.597173e-01 
8.754509e-01 
8.918907e-01 
9.090034e-01 
9.267565e-01 
9.451188e-01 
9.640604e-01 
9.835524e-01 
1.003567e+00 
1.024077e+00 
1.045057e+00 
1.066483e+00 
1.088333e+00 
1.110586e+00 
1.133221e+00 
1.156221e+00 
1.179567e+00 
1.203243e+00 
1.168483e+00 
1.145025e+00 
1.121905e+00 
1.099126e+00 
1.076706e+00 
1.054662e+00 
1.033014e+00 
1.011783e+00 
9.909913e-01 
9.706615e-01 
9.508183e-01 
9.314883e-01 
9.127000e-01 
8.944825e-01 
8.768660e-01 
8.598820e-01 
8.435631e-01 
8.279432e-01 
8.130574e-01 
7.989416e-01 
7.856329e-01 
7.731688e-01 
7.615877e-01 
7.509279e-01 
7.412275e-01 
7.325246e-01 
7.248562e-01 
7.182584e-01 
7.127667e-01 
7.084166e-01 
7.052487e-01 
7.033105e-01 
7.027899e-01 
7.044471e-01 
7.076648e-01 
7.122017e-01 
7.179519e-01 
7.248531e-01 
7.328600e-01 
7.419305e-01 
7.520235e-01 
7.630984e-01 
7.751149e-01 
7.880330e-01 
8.018131e-01 
8.164160e-01 
8.318035e-01 
8.479381e-01 
8.647836e-01 
8.823047e-01 
9.004676e-01 
9.192397e-01 
9.385898e-01 
9.584880e-01 
9.789055e-01 
9.998141e-01 
1.021188e+00 
1.043002e+00 
1.065235e+00 
1.087865e+00 
1.110871e+00 
1.134235e+00 
1.157938e+00 
1.181964e+00 
1.147167e+00 
1.123350e+00 
1.099864e+00 
1.076713e+00 
1.053913e+00 
1.031483e+00 
1.009443e+00 
9.878147e-01 
9.666204e-01 
9.458836e-01 
9.256296e-01 
9.058853e-01 
8.866802e-01 
8.680445e-01 
8.500101e-01 
8.326097e-01 
8.158776e-01 
7.998495e-01 
7.845625e-01 
7.700549e-01 
7.563661e-01 
7.435364e-01 
7.316068e-01 
7.206187e-01 
7.106136e-01 
7.016324e-01 
6.937157e-01 
6.869026e-01 
6.812318e-01 
6.767419e-01 
6.734763e-01 
6.714888e-01 
6.710079e-01 
6.727907e-01 
6.761525e-01 
6.808617e-01 
6.868165e-01 
6.939554e-01 
7.022316e-01 
7.116002e-01 
7.220170e-01 
7.334383e-01 
7.458203e-01 
7.591200e-01 
7.732948e-01 
7.883027e-01 
8.041031e-01 
8.206563e-01 
8.379239e-01 
8.558692e-01 
8.744566e-01 
8.936521e-01 
9.134234e-01 
9.337395e-01 
9.545703e-01 
9.758871e-01 
9.976634e-01 
1.019875e+00 
1.042498e+00 
1.065511e+00 
1.088894e+00 
1.112627e+00 
1.136692e+00 
1.161072e+00 
1.126256e+00 
1.102077e+00 
1.078220e+00 
1.054690e+00 
1.031504e+00 
1.008681e+00 
9.862412e-01 
9.642066e-01 
9.425999e-01 
9.214454e-01 
9.007690e-01 
8.805980e-01 
8.609626e-01 
8.418944e-01 
8.234265e-01 
8.055932e-01 
7.884305e-01 
7.719760e-01 
7.562690e-01 
7.413501e-01 
7.272614e-01 
7.140459e-01 
7.017479e-01 
6.904119e-01 
6.800830e-01 
6.708057e-01 
6.626241e-01 
6.555812e-01 
6.497189e-01 
6.450792e-01 
6.417088e-01 
6.396679e-01 
6.392333e-01 
6.411452e-01 
6.446564e-01 
6.495468e-01 
6.557185e-01 
6.631101e-01 
6.716727e-01 
6.813582e-01 
6.921188e-01 
7.039070e-01 
7.166755e-01 
7.303777e-01 
7.449676e-01 
7.604006e-01 
7.766332e-01 
7.936233e-01 
8.113305e-01 
8.297162e-01 
8.487432e-01 
8.683762e-01 
8.885817e-01 
9.093274e-01 
9.305822e-01 
9.523171e-01 
9.745052e-01 
9.971215e-01 
1.020142e+00 
1.043546e+00 
1.067311e+00 
1.091418e+00 
1.115849e+00 
1.140587e+00 
1.105772e+00 
1.081227e+00 
1.056995e+00 
1.033081e+00 
1.009503e+00 
9.862804e-01 
9.634329e-01 
9.409831e-01 
9.189543e-01 
8.973714e-01 
8.762608e-01 
8.556505e-01 
8.355711e-01 
8.160554e-01 
7.971378e-01 
7.788544e-01 
7.612429e-01 
7.443428e-01 
7.281956e-01 
7.128445e-01 
6.983343e-01 
6.847114e-01 
6.720231e-01 
6.603178e-01 
6.496442e-01 
6.400511e-01 
6.315864e-01 
6.242973e-01 
6.182297e-01 
6.134292e-01 
6.099461e-01 
6.078473e-01 
6.074663e-01 
6.095108e-01 
6.131778e-01 
6.182596e-01 
6.246619e-01 
6.323229e-01 
6.411908e-01 
6.512136e-01 
6.623396e-01 
6.745170e-01 
6.876944e-01 
7.018214e-01 
7.168486e-01 
7.327278e-01 
7.494128e-01 
7.668591e-01 
7.850240e-01 
8.038669e-01 
8.233492e-01 
8.434341e-01 
8.640867e-01 
8.852739e-01 
9.069635e-01 
9.291263e-01 
9.517349e-01 
9.747639e-01 
9.981894e-01 
1.021989e+00 
1.046141e+00 
1.070627e+00 
1.095428e+00 
1.120526e+00 
1.085756e+00 
1.060844e+00 
1.036232e+00 
1.011929e+00 
9.879518e-01 
9.643211e-01 
9.410573e-01 
9.181828e-01 
8.957213e-01 
8.736981e-01 
8.521403e-01 
8.310766e-01 
8.105382e-01 
7.905586e-01 
7.711740e-01 
7.524218e-01 
7.343415e-01 
7.169748e-01 
7.003655e-01 
6.845594e-01 
6.696043e-01 
6.555500e-01 
6.424474e-01 
6.303489e-01 
6.193076e-01 
6.093766e-01 
6.006085e-01 
5.930550e-01 
5.867666e-01 
5.817931e-01 
5.781885e-01 
5.760264e-01 
5.757074e-01 
5.778878e-01 
5.817178e-01 
5.870026e-01 
5.936510e-01 
6.015999e-01 
6.107939e-01 
6.211767e-01 
6.326918e-01 
6.452826e-01 
6.588933e-01 
6.734692e-01 
6.889570e-01 
7.053050e-01 
7.224641e-01 
7.403869e-01 
7.590286e-01 
7.783465e-01 
7.983003e-01 
8.188519e-01 
8.399651e-01 
8.616057e-01 
8.837411e-01 
9.063415e-01 
9.293793e-01 
9.528286e-01 
9.766652e-01 
1.000866e+00 
1.025411e+00 
1.050279e+00 
1.075453e+00 
1.100914e+00 
1.066235e+00 
1.040948e+00 
1.015949e+00 
9.912500e-01 
9.668677e-01 
9.428217e-01 
9.191333e-01 
8.958249e-01 
8.729206e-01 
8.504461e-01 
8.284290e-01 
8.068987e-01 
7.858869e-01 
7.654281e-01 
7.455596e-01 
7.263206e-01 
7.077522e-01 
6.898984e-01 
6.728053e-01 
6.565214e-01 
6.410979e-01 
6.265879e-01 
6.130465e-01 
6.005303e-01 
5.890970e-01 
5.788049e-01 
5.697117e-01 
5.618744e-01 
5.553484e-01 
5.501883e-01 
5.464525e-01 
5.442209e-01 
5.439564e-01 
5.462633e-01 
5.502620e-01 
5.557621e-01 
5.626737e-01 
5.709313e-01 
5.804749e-01 
5.912429e-01 
6.031735e-01 
6.162048e-01 
6.302760e-01 
6.453277e-01 
6.613024e-01 
6.781449e-01 
6.958025e-01 
7.142253e-01 
7.333658e-01 
7.531796e-01 
7.736244e-01 
7.946608e-01 
8.162512e-01 
8.383603e-01 
8.609553e-01 
8.840060e-01 
9.074843e-01 
9.313641e-01 
9.556209e-01 
9.802319e-01 
1.005176e+00 
1.030433e+00 
1.055985e+00 
1.081815e+00 
1.047157e+00 
1.021490e+00 
9.961060e-01 
9.710106e-01 
9.462213e-01 
9.217578e-01 
8.976411e-01 
8.738939e-01 
8.505404e-01 
8.276068e-01 
8.051211e-01 
7.831133e-01 
7.616158e-01 
7.406637e-01 
7.202954e-01 
7.005517e-01 
6.814758e-01 
6.631135e-01 
6.455136e-01 
6.287276e-01 
6.128099e-01 
5.978175e-01 
5.838097e-01 
5.708482e-01 
5.589958e-01 
5.483163e-01 
5.388735e-01 
5.307302e-01 
5.239476e-01 
5.185858e-01 
5.147082e-01 
5.124008e-01 
5.122126e-01 
5.146610e-01 
5.188411e-01 
5.245728e-01 
5.317680e-01 
5.403578e-01 
5.502769e-01 
5.614577e-01 
5.738320e-01 
5.873323e-01 
6.018920e-01 
6.174467e-01 
6.339344e-01 
6.512959e-01 
6.694751e-01 
6.884191e-01 
7.080782e-01 
7.284055e-01 
7.493576e-01 
7.708932e-01 
7.929737e-01 
8.155629e-01 
8.386280e-01 
8.621384e-01 
8.860657e-01 
9.103836e-01 
9.350674e-01 
9.600945e-01 
9.854435e-01 
1.011095e+00 
1.037030e+00 
1.063232e+00 
1.028583e+00 
1.002541e+00 
9.767699e-01 
9.512756e-01 
9.260760e-01 
9.011905e-01 
8.766400e-01 
8.524473e-01 
8.286368e-01 
8.052348e-01 
7.822697e-01 
7.597722e-01 
7.377752e-01 
7.163145e-01 
6.954293e-01 
6.751620e-01 
6.555576e-01 
6.366643e-01 
6.185331e-01 
6.012189e-01 
5.847793e-01 
5.692757e-01 
5.547719e-01 
5.413349e-01 
5.290334e-01 
5.179376e-01 
5.081178e-01 
4.996437e-01 
4.925834e-01 
4.870029e-01 
4.829711e-01 
4.805806e-01 
4.804765e-01 
4.830714e-01 
4.874432e-01 
4.934235e-01 
5.009243e-01 
5.098722e-01 
5.201952e-01 
5.318186e-01 
5.446672e-01 
5.586667e-01 
5.737445e-01 
5.898306e-01 
6.068580e-01 
6.247635e-01 
6.434874e-01 
6.629736e-01 
6.831700e-01 
7.040278e-01 
7.255017e-01 
7.475490e-01 
7.701302e-01 
7.932087e-01 
8.167513e-01 
8.407271e-01 
8.651076e-01 
8.898663e-01 
9.149787e-01 
9.404219e-01 
9.661749e-01 
9.922183e-01 
1.018534e+00 
1.045105e+00 
1.010544e+00 
9.841261e-01 
9.579665e-01 
9.320718e-01 
9.064592e-01 
8.811481e-01 
8.561592e-01 
8.315152e-01 
8.072404e-01 
7.833614e-01 
7.599069e-01 
7.369078e-01 
7.143977e-01 
6.924132e-01 
6.709941e-01 
6.501840e-01 
6.300299e-01 
6.105820e-01 
5.918942e-01 
5.740241e-01 
5.570334e-01 
5.409875e-01 
5.259557e-01 
5.120103e-01 
4.992268e-01 
4.876823e-01 
4.774550e-01 
4.686225e-01 
4.612602e-01 
4.554419e-01 
4.512424e-01 
4.487605e-01 
4.487484e-01 
4.514942e-01 
4.560702e-01 
4.623188e-01 
4.701507e-01 
4.794864e-01 
4.902456e-01 
5.023453e-01 
5.157024e-01 
5.302349e-01 
5.458635e-01 
5.625122e-01 
5.801089e-01 
5.985857e-01 
6.178793e-01 
6.379307e-01 
6.586850e-01 
6.800916e-01 
7.021033e-01 
7.246764e-01 
7.477705e-01 
7.713488e-01 
7.953778e-01 
8.198262e-01 
8.446656e-01 
8.698693e-01 
8.954131e-01 
9.212744e-01 
9.474322e-01 
9.738675e-01 
1.000563e+00 
1.027501e+00 
9.930631e-01 
9.662708e-01 
9.397231e-01 
9.134272e-01 
8.874001e-01 
8.616607e-01 
8.362297e-01 
8.111295e-01 
7.863843e-01 
7.620205e-01 
7.380671e-01 
7.145553e-01 
6.915193e-01 
6.689960e-01 
6.470260e-01 
6.256540e-01 
6.049285e-01 
5.849020e-01 
5.656309e-01 
5.471761e-01 
5.296030e-01 
5.129817e-01 
4.973868e-01 
4.828971e-01 
4.695951e-01 
4.575662e-01 
4.468972e-01 
4.376747e-01 
4.299835e-01 
4.239055e-01 
4.195229e-01 
4.169408e-01 
4.170278e-01 
4.199299e-01 
4.247249e-01 
4.312646e-01 
4.394571e-01 
4.492142e-01 
4.604460e-01 
4.730597e-01 
4.869629e-01 
5.020654e-01 
5.182802e-01 
5.355250e-01 
5.537220e-01 
5.727988e-01 
5.926882e-01 
6.133280e-01 
6.346611e-01 
6.566347e-01 
6.792003e-01 
7.023128e-01 
7.259317e-01 
7.500198e-01 
7.745432e-01 
7.994709e-01 
8.247741e-01 
8.504267e-01 
8.764044e-01 
9.026850e-01 
9.292480e-01 
9.560747e-01 
9.831477e-01 
1.010451e+00 
9.761678e-01 
9.490029e-01 
9.220684e-01 
8.953716e-01 
8.689294e-01 
8.427603e-01 
8.168846e-01 
7.913243e-01 
7.661034e-01 
7.412483e-01 
7.167877e-01 
6.927531e-01 
6.691787e-01 
6.461023e-01 
6.235649e-01 
6.016119e-01 
5.802933e-01 
5.596636e-01 
5.397817e-01 
5.207118e-01 
5.025232e-01 
4.852908e-01 
4.690950e-01 
4.540215e-01 
4.401609e-01 
4.276075e-01 
4.164582e-01 
4.068102e-01 
3.987591e-01 
3.923967e-01 
3.878137e-01 
3.851221e-01 
3.853143e-01 
3.883797e-01 
3.934106e-01 
4.002683e-01 
4.088551e-01 
4.190722e-01 
4.308177e-01 
4.439875e-01 
4.584785e-01 
4.741913e-01 
4.910306e-01 
5.089071e-01 
5.277372e-01 
5.474437e-01 
5.679555e-01 
5.892073e-01 
6.111397e-01 
6.336982e-01 
6.568326e-01 
6.804977e-01 
7.046522e-01 
7.292589e-01 
7.542839e-01 
7.796961e-01 
8.054671e-01 
8.315709e-01 
8.579838e-01 
8.846839e-01 
9.116513e-01 
9.388677e-01 
9.663163e-01 
9.939816e-01 
9.598870e-01 
9.323537e-01 
9.050345e-01 
8.779385e-01 
8.510819e-01 
8.244829e-01 
7.981612e-01 
7.721383e-01 
7.464379e-01 
7.210860e-01 
6.961110e-01 
6.715444e-01 
6.474205e-01 
6.237773e-01 
6.006563e-01 