# vtk DataFile Version 2.0 
Quadtree Mesh 
ASCII 
DATASET UNSTRUCTURED_GRID 
POINTS 4096 double 
-1.000000e+00 -1.000000e+00 0.000000e+00
-9.682540e-01 -1.000000e+00 0.000000e+00
-9.365079e-01 -1.000000e+00 0.000000e+00
-9.047619e-01 -1.000000e+00 0.000000e+00
-8.730159e-01 -1.000000e+00 0.000000e+00
-8.412698e-01 -1.000000e+00 0.000000e+00
-8.095238e-01 -1.000000e+00 0.000000e+00
-7.777778e-01 -1.000000e+00 0.000000e+00
-7.460317e-01 -1.000000e+00 0.000000e+00
-7.142857e-01 -1.000000e+00 0.000000e+00
-6.825397e-01 -1.000000e+00 0.000000e+00
-6.507937e-01 -1.000000e+00 0.000000e+00
-6.190476e-01 -1.000000e+00 0.000000e+00
-5.873016e-01 -1.000000e+00 0.000000e+00
-5.555556e-01 -1.000000e+00 0.000000e+00
-5.238095e-01 -1.000000e+00 0.000000e+00
-4.920635e-01 -1.000000e+00 0.000000e+00
-4.603175e-01 -1.000000e+00 0.000000e+00
-4.285714e-01 -1.000000e+00 0.000000e+00
-3.968254e-01 -1.000000e+00 0.000000e+00
-3.650794e-01 -1.000000e+00 0.000000e+00
-3.333333e-01 -1.000000e+00 0.000000e+00
-3.015873e-01 -1.000000e+00 0.000000e+00
-2.698413e-01 -1.000000e+00 0.000000e+00
-2.380952e-01 -1.000000e+00 0.000000e+00
-2.063492e-01 -1.000000e+00 0.000000e+00
-1.746032e-01 -1.000000e+00 0.000000e+00
-1.428571e-01 -1.000000e+00 0.000000e+00
-1.111111e-01 -1.000000e+00 0.000000e+00
-7.936508e-02 -1.000000e+00 0.000000e+00
-4.761905e-02 -1.000000e+00 0.000000e+00
-1.587302e-02 -1.000000e+00 0.000000e+00
1.587302e-02 -1.000000e+00 0.000000e+00
4.761905e-02 -1.000000e+00 0.000000e+00
7.936508e-02 -1.000000e+00 0.000000e+00
1.111111e-01 -1.000000e+00 0.000000e+00
1.428571e-01 -1.000000e+00 0.000000e+00
1.746032e-01 -1.000000e+00 0.000000e+00
2.063492e-01 -1.000000e+00 0.000000e+00
2.380952e-01 -1.000000e+00 0.000000e+00
2.698413e-01 -1.000000e+00 0.000000e+00
3.015873e-01 -1.000000e+00 0.000000e+00
3.333333e-01 -1.000000e+00 0.000000e+00
3.650794e-01 -1.000000e+00 0.000000e+00
3.968254e-01 -1.000000e+00 0.000000e+00
4.285714e-01 -1.000000e+00 0.000000e+00
4.603175e-01 -1.000000e+00 0.000000e+00
4.920635e-01 -1.000000e+00 0.000000e+00
5.238095e-01 -1.000000e+00 0.000000e+00
5.555556e-01 -1.000000e+00 0.000000e+00
5.873016e-01 -1.000000e+00 0.000000e+00
6.190476e-01 -1.000000e+00 0.000000e+00
6.507937e-01 -1.000000e+00 0.000000e+00
6.825397e-01 -1.000000e+00 0.000000e+00
7.142857e-01 -1.000000e+00 0.000000e+00
7.460317e-01 -1.000000e+00 0.000000e+00
7.777778e-01 -1.000000e+00 0.000000e+00
8.095238e-01 -1.000000e+00 0.000000e+00
8.412698e-01 -1.000000e+00 0.000000e+00
8.730159e-01 -1.000000e+00 0.000000e+00
9.047619e-01 -1.000000e+00 0.000000e+00
9.365079e-01 -1.000000e+00 0.000000e+00
9.682540e-01 -1.000000e+00 0.000000e+00
1.000000e+00 -1.000000e+00 0.000000e+00
-1.000000e+00 -9.682540e-01 0.000000e+00
-9.682540e-01 -9.682540e-01 0.000000e+00
-9.365079e-01 -9.682540e-01 0.000000e+00
-9.047619e-01 -9.682540e-01 0.000000e+00
-8.730159e-01 -9.682540e-01 0.000000e+00
-8.412698e-01 -9.682540e-01 0.000000e+00
-8.095238e-01 -9.682540e-01 0.000000e+00
-7.777778e-01 -9.682540e-01 0.000000e+00
-7.460317e-01 -9.682540e-01 0.000000e+00
-7.142857e-01 -9.682540e-01 0.000000e+00
-6.825397e-01 -9.682540e-01 0.000000e+00
-6.507937e-01 -9.682540e-01 0.000000e+00
-6.190476e-01 -9.682540e-01 0.000000e+00
-5.873016e-01 -9.682540e-01 0.000000e+00
-5.555556e-01 -9.682540e-01 0.000000e+00
-5.238095e-01 -9.682540e-01 0.000000e+00
-4.920635e-01 -9.682540e-01 0.000000e+00
-4.603175e-01 -9.682540e-01 0.000000e+00
-4.285714e-01 -9.682540e-01 0.000000e+00
-3.968254e-01 -9.682540e-01 0.000000e+00
-3.650794e-01 -9.682540e-01 0.000000e+00
-3.333333e-01 -9.682540e-01 0.000000e+00
-3.015873e-01 -9.682540e-01 0.000000e+00
-2.698413e-01 -9.682540e-01 0.000000e+00
-2.380952e-01 -9.682540e-01 0.000000e+00
-2.063492e-01 -9.682540e-01 0.000000e+00
-1.746032e-01 -9.682540e-01 0.000000e+00
-1.428571e-01 -9.682540e-01 0.000000e+00
-1.111111e-01 -9.682540e-01 0.000000e+00
-7.936508e-02 -9.682540e-01 0.000000e+00
-4.761905e-02 -9.682540e-01 0.000000e+00
-1.587302e-02 -9.682540e-01 0.000000e+00
1.587302e-02 -9.682540e-01 0.000000e+00
4.761905e-02 -9.682540e-01 0.000000e+00
7.936508e-02 -9.682540e-01 0.000000e+00
1.111111e-01 -9.682540e-01 0.000000e+00
1.428571e-01 -9.682540e-01 0.000000e+00
1.746032e-01 -9.682540e-01 0.000000e+00
2.063492e-01 -9.682540e-01 0.000000e+00
2.380952e-01 -9.682540e-01 0.000000e+00
2.698413e-01 -9.682540e-01 0.000000e+00
3.015873e-01 -9.682540e-01 0.000000e+00
3.333333e-01 -9.682540e-01 0.000000e+00
3.650794e-01 -9.682540e-01 0.000000e+00
3.968254e-01 -9.682540e-01 0.000000e+00
4.285714e-01 -9.682540e-01 0.000000e+00
4.603175e-01 -9.682540e-01 0.000000e+00
4.920635e-01 -9.682540e-01 0.000000e+00
5.238095e-01 -9.682540e-01 0.000000e+00
5.555556e-01 -9.682540e-01 0.000000e+00
5.873016e-01 -9.682540e-01 0.000000e+00
6.190476e-01 -9.682540e-01 0.000000e+00
6.507937e-01 -9.682540e-01 0.000000e+00
6.825397e-01 -9.682540e-01 0.000000e+00
7.142857e-01 -9.682540e-01 0.000000e+00
7.460317e-01 -9.682540e-01 0.000000e+00
7.777778e-01 -9.682540e-01 0.000000e+00
8.095238e-01 -9.682540e-01 0.000000e+00
8.412698e-01 -9.682540e-01 0.000000e+00
8.730159e-01 -9.682540e-01 0.000000e+00
9.047619e-01 -9.682540e-01 0.000000e+00
9.365079e-01 -9.682540e-01 0.000000e+00
9.682540e-01 -9.682540e-01 0.000000e+00
1.000000e+00 -9.682540e-01 0.000000e+00
-1.000000e+00 -9.365079e-01 0.000000e+00
-9.682540e-01 -9.365079e-01 0.000000e+00
-9.365079e-01 -9.365079e-01 0.000000e+00
-9.047619e-01 -9.365079e-01 0.000000e+00
-8.730159e-01 -9.365079e-01 0.000000e+00
-8.412698e-01 -9.365079e-01 0.000000e+00
-8.095238e-01 -9.365079e-01 0.000000e+00
-7.777778e-01 -9.365079e-01 0.000000e+00
-7.460317e-01 -9.365079e-01 0.000000e+00
-7.142857e-01 -9.365079e-01 0.000000e+00
-6.825397e-01 -9.365079e-01 0.000000e+00
-6.507937e-01 -9.365079e-01 0.000000e+00
-6.190476e-01 -9.365079e-01 0.000000e+00
-5.873016e-01 -9.365079e-01 0.000000e+00
-5.555556e-01 -9.365079e-01 0.000000e+00
-5.238095e-01 -9.365079e-01 0.000000e+00
-4.920635e-01 -9.365079e-01 0.000000e+00
-4.603175e-01 -9.365079e-01 0.000000e+00
-4.285714e-01 -9.365079e-01 0.000000e+00
-3.968254e-01 -9.365079e-01 0.000000e+00
-3.650794e-01 -9.365079e-01 0.000000e+00
-3.333333e-01 -9.365079e-01 0.000000e+00
-3.015873e-01 -9.365079e-01 0.000000e+00
-2.698413e-01 -9.365079e-01 0.000000e+00
-2.380952e-01 -9.365079e-01 0.000000e+00
-2.063492e-01 -9.365079e-01 0.000000e+00
-1.746032e-01 -9.365079e-01 0.000000e+00
-1.428571e-01 -9.365079e-01 0.000000e+00
-1.111111e-01 -9.365079e-01 0.000000e+00
-7.936508e-02 -9.365079e-01 0.000000e+00
-4.761905e-02 -9.365079e-01 0.000000e+00
-1.587302e-02 -9.365079e-01 0.000000e+00
1.587302e-02 -9.365079e-01 0.000000e+00
4.761905e-02 -9.365079e-01 0.000000e+00
7.936508e-02 -9.365079e-01 0.000000e+00
1.111111e-01 -9.365079e-01 0.000000e+00
1.428571e-01 -9.365079e-01 0.000000e+00
1.746032e-01 -9.365079e-01 0.000000e+00
2.063492e-01 -9.365079e-01 0.000000e+00
2.380952e-01 -9.365079e-01 0.000000e+00
2.698413e-01 -9.365079e-01 0.000000e+00
3.015873e-01 -9.365079e-01 0.000000e+00
3.333333e-01 -9.365079e-01 0.000000e+00
3.650794e-01 -9.365079e-01 0.000000e+00
3.968254e-01 -9.365079e-01 0.000000e+00
4.285714e-01 -9.365079e-01 0.000000e+00
4.603175e-01 -9.365079e-01 0.000000e+00
4.920635e-01 -9.365079e-01 0.000000e+00
5.238095e-01 -9.365079e-01 0.000000e+00
5.555556e-01 -9.365079e-01 0.000000e+00
5.873016e-01 -9.365079e-01 0.000000e+00
6.190476e-01 -9.365079e-01 0.000000e+00
6.507937e-01 -9.365079e-01 0.000000e+00
6.825397e-01 -9.365079e-01 0.000000e+00
7.142857e-01 -9.365079e-01 0.000000e+00
7.460317e-01 -9.365079e-01 0.000000e+00
7.777778e-01 -9.365079e-01 0.000000e+00
8.095238e-01 -9.365079e-01 0.000000e+00
8.412698e-01 -9.365079e-01 0.000000e+00
8.730159e-01 -9.365079e-01 0.000000e+00
9.047619e-01 -9.365079e-01 0.000000e+00
9.365079e-01 -9.365079e-01 0.000000e+00
9.682540e-01 -9.365079e-01 0.000000e+00
1.000000e+00 -9.365079e-01 0.000000e+00
-1.000000e+00 -9.047619e-01 0.000000e+00
-9.682540e-01 -9.047619e-01 0.000000e+00
-9.365079e-01 -9.047619e-01 0.000000e+00
-9.047619e-01 -9.047619e-01 0.000000e+00
-8.730159e-01 -9.047619e-01 0.000000e+00
-8.412698e-01 -9.047619e-01 0.000000e+00
-8.095238e-01 -9.047619e-01 0.000000e+00
-7.777778e-01 -9.047619e-01 0.000000e+00
-7.460317e-01 -9.047619e-01 0.000000e+00
-7.142857e-01 -9.047619e-01 0.000000e+00
-6.825397e-01 -9.047619e-01 0.000000e+00
-6.507937e-01 -9.047619e-01 0.000000e+00
-6.190476e-01 -9.047619e-01 0.000000e+00
-5.873016e-01 -9.047619e-01 0.000000e+00
-5.555556e-01 -9.047619e-01 0.000000e+00
-5.238095e-01 -9.047619e-01 0.000000e+00
-4.920635e-01 -9.047619e-01 0.000000e+00
-4.603175e-01 -9.047619e-01 0.000000e+00
-4.285714e-01 -9.047619e-01 0.000000e+00
-3.968254e-01 -9.047619e-01 0.000000e+00
-3.650794e-01 -9.047619e-01 0.000000e+00
-3.333333e-01 -9.047619e-01 0.000000e+00
-3.015873e-01 -9.047619e-01 0.000000e+00
-2.698413e-01 -9.047619e-01 0.000000e+00
-2.380952e-01 -9.047619e-01 0.000000e+00
-2.063492e-01 -9.047619e-01 0.000000e+00
-1.746032e-01 -9.047619e-01 0.000000e+00
-1.428571e-01 -9.047619e-01 0.000000e+00
-1.111111e-01 -9.047619e-01 0.000000e+00
-7.936508e-02 -9.047619e-01 0.000000e+00
-4.761905e-02 -9.047619e-01 0.000000e+00
-1.587302e-02 -9.047619e-01 0.000000e+00
1.587302e-02 -9.047619e-01 0.000000e+00
4.761905e-02 -9.047619e-01 0.000000e+00
7.936508e-02 -9.047619e-01 0.000000e+00
1.111111e-01 -9.047619e-01 0.000000e+00
1.428571e-01 -9.047619e-01 0.000000e+00
1.746032e-01 -9.047619e-01 0.000000e+00
2.063492e-01 -9.047619e-01 0.000000e+00
2.380952e-01 -9.047619e-01 0.000000e+00
2.698413e-01 -9.047619e-01 0.000000e+00
3.015873e-01 -9.047619e-01 0.000000e+00
3.333333e-01 -9.047619e-01 0.000000e+00
3.650794e-01 -9.047619e-01 0.000000e+00
3.968254e-01 -9.047619e-01 0.000000e+00
4.285714e-01 -9.047619e-01 0.000000e+00
4.603175e-01 -9.047619e-01 0.000000e+00
4.920635e-01 -9.047619e-01 0.000000e+00
5.238095e-01 -9.047619e-01 0.000000e+00
5.555556e-01 -9.047619e-01 0.000000e+00
5.873016e-01 -9.047619e-01 0.000000e+00
6.190476e-01 -9.047619e-01 0.000000e+00
[...]
POINT_DATA 4096 
SCALARS concentration double 1 
LOOKUP_TABLE default 
1.486555e+00 
1.464210e+00 
1.442146e+00 
1.420398e+00 
1.398975e+00 
1.377887e+00 
1.357143e+00 
1.336758e+00 
1.316745e+00 
1.297118e+00 
1.277892e+00 
1.259083e+00 
1.240706e+00 
1.222780e+00 
1.205320e+00 
1.188344e+00 
1.171873e+00 
1.155926e+00 
1.140522e+00 
1.125683e+00 
1.111428e+00 
1.097781e+00 
1.084761e+00 
1.072390e+00 
1.060690e+00 
1.049681e+00 
1.039386e+00 
1.029826e+00 
1.021020e+00 
1.012988e+00 
1.005751e+00 
9.993278e-01 
9.937366e-01 
9.889933e-01 
9.851084e-01 
9.820928e-01 
9.799579e-01 
9.787193e-01 
9.784794e-01 
9.794841e-01 
9.817046e-01 
9.850514e-01 
9.894332e-01 
9.947788e-01 
1.001037e+00 
1.008169e+00 
1.016145e+00 
1.024938e+00 
1.034521e+00 
1.044872e+00 
1.055966e+00 
1.067778e+00 
1.080284e+00 
1.093459e+00 
1.107280e+00 
1.121727e+00 
1.136775e+00 
1.152404e+00 
1.168592e+00 
1.185319e+00 
1.202564e+00 
1.220309e+00 
1.238533e+00 
1.257219e+00 
1.464061e+00 
1.441415e+00 
1.419048e+00 
1.396994e+00 
1.375261e+00 
1.353860e+00 
1.332801e+00 
1.312100e+00 
1.291767e+00 
1.271820e+00 
1.252272e+00 
1.233139e+00 
1.214439e+00 
1.196188e+00 
1.178405e+00 
1.161109e+00 
1.144318e+00 
1.128053e+00 
1.112335e+00 
1.097186e+00 
1.082628e+00 
1.068683e+00 
1.055373e+00 
1.042722e+00 
1.030751e+00 
1.019483e+00 
1.008942e+00 
9.991495e-01 
9.901270e-01 
9.818961e-01 
9.744778e-01 
9.678924e-01 
9.621603e-01 
9.572978e-01 
9.533167e-01 
9.502283e-01 
9.480453e-01 
9.467845e-01 
9.465679e-01 
9.476505e-01 
9.499823e-01 
9.534600e-01 
9.579873e-01 
9.634931e-01 
9.699270e-01 
9.772516e-01 
9.854360e-01 
9.944528e-01 
1.004276e+00 
1.014880e+00 
1.026240e+00 
1.038328e+00 
1.051120e+00 
1.064591e+00 
1.078715e+00 
1.093470e+00 
1.108833e+00 
1.124779e+00 
1.141289e+00 
1.158339e+00 
1.175909e+00 
1.193978e+00 
1.212528e+00 
1.231540e+00 
1.441886e+00 
1.418936e+00 
1.396261e+00 
1.373895e+00 
1.351845e+00 
1.330124e+00 
1.308743e+00 
1.287716e+00 
1.267057e+00 
1.246780e+00 
1.226901e+00 
1.207436e+00 
1.188403e+00 
1.169819e+00 
1.151703e+00 
1.134075e+00 
1.116954e+00 
1.100361e+00 
1.084319e+00 
1.068849e+00 
1.053976e+00 
1.039722e+00 
1.026111e+00 
1.013167e+00 
1.000914e+00 
9.893757e-01 
9.785771e-01 
9.685415e-01 
9.592921e-01 
9.508519e-01 
9.432431e-01 
9.364875e-01 
9.306067e-01 
9.256182e-01 
9.215346e-01 
9.183688e-01 
9.161342e-01 
9.148490e-01 
9.146582e-01 
9.158235e-01 
9.182701e-01 
9.218816e-01 
9.265581e-01 
9.322287e-01 
9.388443e-01 
9.463681e-01 
9.547691e-01 
9.640191e-01 
9.740909e-01 
9.849576e-01 
9.965925e-01 
1.008968e+00 
1.022056e+00 
1.035832e+00 
1.050268e+00 
1.065341e+00 
1.081026e+00 
1.097298e+00 
1.114136e+00 
1.131517e+00 
1.149418e+00 
1.167819e+00 
1.186700e+00 
1.206041e+00 
1.420029e+00 
1.396772e+00 
1.373787e+00 
1.351104e+00 
1.328732e+00 
1.306685e+00 
1.284975e+00 
1.263616e+00 
1.242622e+00 
1.222008e+00 
1.201790e+00 
1.181985e+00 
1.162610e+00 
1.143683e+00 
1.125225e+00 
1.107254e+00 
1.089793e+00 
1.072862e+00 
1.056484e+00 
1.040682e+00 
1.025482e+00 
1.010907e+00 
9.969819e-01 
9.837330e-01 
9.711854e-01 
9.593648e-01 
9.482968e-01 
9.380066e-01 
9.285192e-01 
9.198592e-01 
9.120502e-01 
9.051156e-01 
8.990783e-01 
8.939570e-01 
8.897657e-01 
8.865184e-01 
8.842296e-01 
8.829188e-01 
8.827580e-01 
8.840110e-01 
8.865766e-01 
8.903258e-01 
8.951560e-01 
9.009976e-01 
9.078027e-01 
9.155347e-01 
9.241624e-01 
9.336565e-01 
9.439882e-01 
9.551294e-01 
9.670515e-01 
9.797260e-01 
9.931231e-01 
1.007215e+00 
1.021975e+00 
1.037377e+00 
1.053395e+00 
1.070005e+00 
1.087181e+00 
1.104901e+00 
1.123143e+00 
1.141884e+00 
1.161104e+00 
1.180782e+00 
1.398503e+00 
1.374936e+00 
1.351637e+00 
1.328635e+00 
1.305937e+00 
1.283557e+00 
1.261512e+00 
1.239814e+00 
1.218478e+00 
1.197520e+00 
1.176955e+00 
1.156801e+00 
1.137075e+00 
1.117796e+00 
1.098985e+00 
1.080662e+00 
1.062848e+00 
1.045567e+00 
1.028842e+00 
1.012697e+00 
9.971566e-01 
9.822478e-01 
9.679965e-01 
9.544297e-01 
9.415744e-01 
9.294579e-01 
9.181076e-01 
9.075504e-01 
8.978130e-01 
8.889217e-01 
8.809019e-01 
8.737787e-01 
8.675764e-01 
8.623151e-01 
8.580102e-01 
8.546771e-01 
8.523314e-01 
8.509935e-01 
8.508675e-01 
8.522137e-01 
8.549023e-01 
8.587932e-01 
8.637825e-01 
8.698021e-01 
8.768053e-01 
8.847557e-01 
8.936213e-01 
9.033713e-01 
9.139755e-01 
9.254039e-01 
9.376264e-01 
9.506128e-01 
9.643315e-01 
9.787532e-01 
9.938495e-01 
1.009593e+00 
1.025956e+00 
1.042913e+00 
1.060439e+00 
1.078510e+00 
1.097102e+00 
1.116193e+00 
1.135760e+00 
1.155785e+00 
1.377321e+00 
1.353442e+00 
1.329826e+00 
1.306500e+00 
1.283471e+00 
1.260756e+00 
1.238369e+00 
1.216326e+00 
1.194641e+00 
1.173331e+00 
1.152411e+00 
1.131899e+00 
1.111813e+00 
1.092172e+00 
1.072998e+00 
1.054312e+00 
1.036135e+00 
1.018492e+00 
1.001407e+00 
9.849051e-01 
9.690125e-01 
9.537565e-01 
9.391649e-01 
9.252662e-01 
9.120892e-01 
8.996628e-01 
8.880163e-01 
8.771784e-01 
8.671780e-01 
8.580430e-01 
8.498010e-01 
8.424786e-01 
8.361019e-01 
8.306928e-01 
8.262679e-01 
8.228442e-01 
8.204385e-01 
8.190721e-01 
8.189863e-01 
8.204313e-01 
8.232470e-01 
8.272840e-01 
8.324384e-01 
8.386439e-01 
8.458549e-01 
8.540347e-01 
8.631501e-01 
8.731689e-01 
8.840591e-01 
8.957884e-01 
9.083250e-01 
9.216369e-01 
9.356909e-01 
9.504558e-01 
9.659015e-01 
9.819988e-01 
9.987197e-01 
1.016037e+00 
1.033924e+00 
1.052356e+00 
1.071308e+00 
1.090758e+00 
1.110683e+00 
1.131062e+00 
1.356495e+00 
1.332301e+00 
1.308366e+00 
1.284712e+00 
1.261350e+00 
1.238295e+00 
1.215562e+00 
1.193167e+00 
1.171126e+00 
1.149456e+00 
1.128173e+00 
1.107295e+00 
1.086840e+00 
1.066828e+00 
1.047280e+00 
1.028219e+00 
1.009668e+00 
9.916506e-01 
9.741927e-01 
9.573205e-01 
9.410615e-01 
9.254442e-01 
9.104978e-01 
8.962524e-01 
8.827385e-01 
8.699873e-01 
8.580297e-01 
8.468967e-01 
8.366191e-01 
8.272271e-01 
8.187502e-01 
8.112173e-01 
8.046562e-01 
7.990905e-01 
7.945387e-01 
7.910191e-01 
7.885500e-01 
7.871534e-01 
7.871135e-01 
7.886628e-01 
7.916099e-01 
7.957979e-01 
8.011240e-01 
8.075242e-01 
8.149535e-01 
8.233747e-01 
8.327530e-01 
8.430544e-01 
8.542445e-01 
8.662893e-01 
8.791545e-01 
8.928063e-01 
9.072099e-01 
9.223319e-01 
9.381406e-01 
9.546052e-01 
9.716962e-01 
9.893852e-01 
1.007645e+00 
1.026449e+00 
1.045772e+00 
1.065591e+00 
1.085882e+00 
1.106624e+00 
1.336038e+00 
1.311527e+00 
1.287269e+00 
1.263286e+00 
1.239588e+00 
1.216189e+00 
1.193106e+00 
1.170354e+00 
1.147951e+00 
1.125914e+00 
1.104259e+00 
1.083005e+00 
1.062172e+00 
1.041778e+00 
1.021847e+00 
1.002400e+00 
9.834615e-01 
9.650570e-01 
9.472129e-01 
9.299568e-01 
9.133173e-01 
8.973242e-01 
8.820081e-01 
8.674008e-01 
8.535348e-01 
8.404432e-01 
8.281592e-01 
8.167161e-01 
8.061469e-01 
7.964841e-01 
7.877596e-01 
7.800045e-01 
7.732484e-01 
7.675169e-01 
7.628306e-01 
7.592097e-01 
7.566736e-01 
7.552451e-01 
7.552545e-01 
7.569101e-01 
7.599911e-01 
7.643349e-01 
7.698403e-01 
7.764450e-01 
7.841044e-01 
7.927802e-01 
8.024357e-01 
8.130345e-01 
8.245401e-01 
8.369159e-01 
8.501253e-01 
8.641325e-01 
8.789010e-01 
8.943950e-01 
9.105809e-01 
9.274265e-01 
9.449009e-01 
9.629743e-01 
9.816183e-01 
1.000806e+00 
1.020511e+00 
1.040708e+00 
1.061375e+00 
1.082488e+00 
1.315964e+00 
1.291134e+00 
1.266550e+00 
1.242234e+00 
1.218196e+00 
1.194450e+00 
1.171013e+00 
1.147900e+00 
1.125129e+00 
1.102717e+00 
1.080683e+00 
1.059046e+00 
1.037825e+00 
1.017041e+00 
9.967155e-01 
9.768724e-01 
9.575362e-01 
9.387329e-01 
9.204904e-01 
9.028374e-01 
8.858037e-01 
8.694204e-01 
8.537198e-01 
8.387354e-01 
8.245017e-01 
8.110539e-01 
7.984277e-01 
7.866587e-01 
7.757825e-01 
7.658342e-01 
7.568482e-01 
7.488581e-01 
7.418957e-01 
7.359889e-01 
7.311606e-01 
7.274328e-01 
7.248266e-01 
7.233652e-01 
7.234216e-01 
7.251790e-01 
7.283944e-01 
7.328988e-01 
7.385919e-01 
7.454126e-01 
7.533157e-01 
7.622613e-01 
7.722103e-01 
7.831239e-01 
7.949626e-01 
8.076874e-01 
8.212591e-01 
8.356396e-01 
8.507901e-01 
8.666729e-01 
8.832522e-01 
9.004945e-01 
9.183673e-01 
9.368395e-01 
9.558816e-01 
9.754654e-01 
9.955638e-01 
1.016151e+00 
1.037204e+00 
1.058698e+00 
1.296297e+00 
1.271144e+00 
1.246233e+00 
1.221581e+00 
1.197200e+00 
1.173104e+00 
1.149309e+00 
1.125830e+00 
1.102685e+00 
1.079892e+00 
1.057471e+00 
1.035441e+00 
1.013822e+00 
9.926362e-01 
9.719051e-01 
9.516531e-01 
9.319056e-01 
9.126895e-01 
8.940335e-01 
8.759673e-01 
8.585224e-01 
8.417313e-01 
8.256280e-01 
8.102477e-01 
7.956271e-01 
7.818037e-01 
7.688157e-01 
7.567016e-01 
7.454996e-01 
7.352476e-01 
7.259831e-01 
7.177424e-01 
7.105604e-01 
7.044672e-01 
6.994881e-01 
6.956472e-01 
6.929671e-01 
6.914718e-01 
6.915887e-01 
6.934618e-01 
6.968215e-01 
7.014963e-01 
7.073889e-01 
7.144392e-01 
7.226015e-01 
7.318334e-01 
7.420934e-01 
7.533395e-01 
7.655295e-01 
7.786214e-01 
7.925734e-01 
8.073448e-01 
8.228946e-01 
8.391826e-01 
8.561718e-01 
8.738265e-01 
8.921127e-01 
9.109982e-01 
9.304519e-01 
9.504447e-01 
9.709488e-01 
9.919379e-01 
1.013387e+00 
1.035273e+00 
1.277046e+00 
1.251571e+00 
1.226331e+00 
1.201341e+00 
1.176614e+00 
1.152164e+00 
1.128007e+00 
1.104158e+00 
1.080634e+00 
1.057455e+00 
1.034640e+00 
1.012209e+00 
9.901841e-01 
9.685863e-01 
9.474388e-01 
9.267661e-01 
9.065944e-01 
8.869515e-01 
8.678669e-01 
8.493718e-01 
8.314989e-01 
8.142826e-01 
7.977585e-01 
7.819639e-01 
7.669374e-01 
7.527191e-01 
7.393499e-01 
7.268711e-01 
7.153242e-01 
7.047503e-01 
6.951899e-01 
6.866824e-01 
6.792658e-01 
6.729732e-01 
6.678325e-01 
6.638702e-01 
6.611107e-01 
6.595788e-01 
6.597606e-01 
6.617530e-01 
6.652615e-01 
6.701143e-01 
6.762170e-01 
6.835104e-01 
6.919470e-01 
7.014817e-01 
7.120699e-01 
7.236661e-01 
7.362251e-01 
7.497017e-01 
7.640513e-01 
7.792305e-01 
7.951957e-01 
8.119048e-01 
8.293184e-01 
8.473993e-01 
8.661119e-01 
8.854223e-01 
9.052985e-01 
9.257101e-01 
9.466286e-01 
9.680268e-01 
9.898793e-01 
1.012162e+00 
1.258228e+00 
1.232430e+00 
1.206859e+00 
1.181529e+00 
1.156454e+00 
1.131648e+00 
1.107125e+00 
1.082902e+00 
1.058997e+00 
1.035426e+00 
1.012211e+00 
9.893719e-01 
9.669310e-01 
9.449113e-01 
9.233363e-01 
9.022312e-01 
8.816226e-01 
8.615391e-01 
8.420112e-01 
8.230711e-01 
8.047533e-01 
7.870936e-01 
7.701298e-01 
7.539011e-01 
7.384485e-01 
7.238146e-01 
7.100431e-01 
6.971788e-01 
6.852663e-01 
6.743503e-01 
6.644750e-01 
6.556832e-01 
6.480163e-01 
6.415107e-01 
6.361973e-01 
6.321054e-01 
6.292617e-01 
6.276915e-01 
6.279430e-01 
6.300587e-01 
6.337216e-01 
6.387618e-01 
6.450879e-01 
6.526404e-01 
6.613691e-01 
6.712258e-01 
6.821619e-01 
6.941284e-01 
7.070766e-01 
7.209578e-01 
7.357246e-01 
7.513304e-01 
7.677294e-01 
7.848769e-01 
8.027316e-01 
8.212543e-01 
8.404077e-01 
8.601565e-01 
8.804676e-01 
9.013095e-01 
9.226527e-01 
9.444694e-01 
9.667336e-01 
9.894208e-01 
1.239860e+00 
1.213739e+00 
1.187836e+00 
1.162165e+00 
1.136741e+00 
1.111575e+00 
1.086684e+00 
1.062084e+00 
1.037792e+00 
1.013825e+00 
9.902045e-01 
9.669506e-01 
9.440862e-01 
9.216350e-01 
8.996217e-01 
8.780721e-01 
8.570137e-01 
8.364756e-01 
8.164891e-01 
7.970878e-01 
7.783074e-01 
7.601856e-01 
7.427620e-01 
7.260784e-01 
7.101781e-01 
6.951063e-01 
6.809101e-01 
6.676376e-01 
6.553371e-01 
6.440572e-01 
6.338461e-01 
6.247507e-01 
6.168162e-01 
6.100826e-01 
6.045844e-01 
6.003540e-01 
5.974204e-01 
5.958102e-01 
5.961364e-01 
5.983789e-01 
6.022029e-01 
6.074416e-01 
6.140062e-01 
6.218356e-01 
6.308764e-01 
6.410761e-01 
6.523819e-01 
6.647408e-01 
6.781000e-01 
6.924075e-01 
7.076123e-01 
7.236650e-01 
7.405170e-01 
7.581213e-01 
7.764343e-01 
7.954149e-01 
8.150241e-01 
8.352253e-01 
8.559839e-01 
8.772677e-01 
8.990460e-01 
9.212906e-01 
9.439749e-01 
9.670738e-01 
1.221958e+00 
1.195515e+00 
1.169280e+00 
1.143268e+00 
1.117492e+00 
1.091966e+00 
1.066705e+00 
1.041724e+00 
1.017041e+00 
9.926745e-01 
9.686433e-01 
9.449687e-01 
9.216735e-01 
8.987821e-01 
8.763200e-01 
8.543141e-01 
8.327928e-01 
8.117859e-01 
7.913254e-01 
7.714461e-01 
7.521851e-01 
7.335816e-01 
7.156776e-01 
6.985170e-01 
6.821460e-01 
6.666129e-01 
6.519677e-01 
6.382625e-01 
6.255497e-01 
6.138821e-01 
6.033124e-01 
5.938921e-01 
5.856708e-01 
5.786926e-01 
5.729960e-01 
5.686172e-01 
5.655879e-01 
5.639359e-01 
5.643408e-01 
5.667138e-01 
5.707063e-01 
5.761563e-01 
5.829764e-01 
5.911030e-01 
6.004780e-01 
6.110439e-01 
6.227433e-01 
6.355184e-01 
6.493124e-01 
6.640693e-01 
6.797346e-01 
6.962557e-01 
7.135810e-01 
7.316612e-01 
7.504503e-01 
7.699054e-01 
7.899857e-01 
8.106532e-01 
8.318721e-01 
8.536091e-01 
8.758329e-01 
8.985144e-01 
9.216266e-01 
9.451442e-01 
1.204538e+00 
1.177773e+00 
1.151207e+00 
1.124854e+00 
1.098727e+00 
1.072840e+00 
1.047206e+00 
1.021843e+00 
9.967673e-01 
9.719964e-01 
9.475501e-01 
9.234495e-01 
8.997173e-01 
8.763779e-01 
8.534575e-01 
8.309842e-01 
8.089872e-01 
7.874971e-01 
7.665469e-01 
7.461725e-01 
7.264121e-01 
7.073071e-01 
6.889010e-01 
6.712404e-01 
6.543744e-01 
6.383545e-01 
6.232345e-01 
6.090702e-01 
5.959186e-01 
5.838373e-01 
5.728840e-01 
5.631154e-01 
5.545860e-01 
5.473448e-01 
5.414349e-01 
5.368965e-01 
5.337649e-01 
5.320693e-01 
5.325567e-01 
5.350637e-01 
5.392333e-01 
5.449093e-01 
5.520042e-01 
5.604503e-01 
5.701838e-01 
5.811416e-01 
5.932607e-01 
6.064783e-01 
6.207329e-01 
6.359643e-01 
6.521140e-01 
6.691262e-01 
6.869464e-01 
7.055225e-01 
7.248063e-01 
7.447528e-01 
7.653198e-01 
7.864676e-01 
8.081595e-01 
8.303610e-01 
8.530403e-01 
8.761675e-01 
8.997152e-01 
9.236578e-01 
1.187623e+00 
1.160536e+00 
1.133640e+00 
1.106947e+00 
1.080469e+00 
1.054220e+00 
1.028214e+00 
1.002467e+00 
9.769956e-01 
9.518174e-01 
9.269521e-01 
9.024205e-01 
8.782452e-01 
8.544506e-01 
8.310634e-01 
8.081119e-01 
7.856262e-01 
7.636382e-01 
7.421822e-01 
7.212948e-01 
7.010158e-01 
6.813881e-01 
6.624574e-01 
6.442727e-01 
6.268859e-01 
6.103523e-01 
5.947295e-01 
5.800776e-01 
5.664585e-01 
5.539351e-01 
5.425707e-01 
5.324280e-01 
5.235670e-01 
5.160423e-01 
5.099024e-01 
5.051924e-01 
5.019512e-01 
5.002105e-01 
5.007848e-01 
5.034305e-01 
5.077880e-01 
5.137070e-01 
5.210986e-01 
5.298893e-01 
5.400087e-01 
5.513869e-01 
5.639546e-01 
5.776436e-01 
5.923870e-01 
6.081200e-01 
6.247802e-01 
6.423080e-01 
6.606457e-01 
6.797389e-01 
6.995368e-01 
7.199924e-01 
7.410620e-01 
7.627047e-01 
7.848824e-01 
8.075598e-01 
8.307044e-01 
8.542860e-01 
8.782765e-01 
9.026503e-01 
1.171241e+00 
1.143833e+00 
1.116607e+00 
1.089573e+00 
1.062744e+00 
1.036132e+00 
1.009752e+00 
9.836194e-01 
9.577498e-01 
9.321612e-01 
9.068729e-01 
8.819055e-01 
8.572816e-01 
8.330254e-01 
8.091634e-01 
7.857242e-01 
7.627387e-01 
7.402401e-01 
7.182636e-01 
6.968472e-01 
6.760317e-01 
6.558616e-01 
6.363847e-01 
6.176524e-01 
5.997198e-01 
5.826454e-01 
5.664913e-01 
5.513221e-01 
5.372050e-01 
5.242088e-01 
5.124035e-01 
5.018583e-01 
4.926399e-01 
4.848092e-01 
4.784211e-01 
4.735260e-01 
4.701676e-01 
4.683802e-01 
4.690286e-01 
4.718117e-01 
4.763681e-01 
4.825488e-01 
4.902610e-01 
4.994239e-01 
5.099594e-01 
5.217901e-01 
5.348396e-01 
5.490333e-01 
5.642984e-01 
5.805650e-01 
5.977664e-01 
6.158387e-01 
6.347211e-01 
6.543561e-01 
6.746909e-01 
6.956766e-01 
7.172678e-01 
7.394223e-01 
7.621013e-01 
7.852685e-01 
8.088908e-01 
8.329376e-01 
8.573806e-01 
8.821941e-01 
1.155405e+00 
1.127678e+00 
1.100124e+00 
1.072753e+00 
1.045575e+00 
1.018603e+00 
9.918508e-01 
9.653325e-01 
9.390645e-01 
9.130643e-01 
8.873506e-01 
8.619441e-01 
8.368668e-01 
8.121429e-01 
7.877987e-01 
7.638629e-01 
7.403665e-01 
7.173436e-01 
6.948305e-01 
6.728663e-01 
6.514935e-01 
6.307579e-01 
6.107093e-01 
5.914016e-01 
5.728930e-01 
5.552458e-01 
5.385261e-01 
5.228040e-01 
5.081525e-01 
4.946472e-01 
4.823653e-01 
4.713837e-01 
4.617773e-01 
4.536144e-01 
4.469568e-01 
4.418611e-01 
4.383766e-01 
4.365410e-01 
4.372813e-01 
4.402146e-01 
4.449867e-01 
4.514528e-01 
4.595143e-01 
4.690816e-01 
4.800673e-01 
4.923853e-01 
5.059513e-01 
5.206836e-01 
5.365031e-01 
5.533344e-01 
5.711059e-01 
5.897499e-01 
6.092016e-01 
6.294011e-01 
6.502937e-01 
6.718285e-01 
6.939588e-01 
7.166411e-01 
7.398356e-01 
7.635056e-01 
7.876174e-01 
8.121400e-01 
8.370453e-01 
8.623073e-01 
1.140132e+00 
1.112092e+00 
1.084215e+00 
1.056509e+00 
1.028985e+00 
1.001655e+00 
9.745312e-01 
9.476288e-01 
9.209630e-01 
8.945507e-01 
8.684105e-01 
8.425624e-01 
8.170282e-01 
7.918320e-01 
7.669996e-01 
7.425597e-01 
7.185434e-01 
6.949848e-01 
6.719212e-01 
6.493928e-01 
6.274434e-01 
6.061204e-01 
5.854755e-01 
5.655650e-01 
5.464501e-01 
5.281970e-01 
5.108765e-01 
4.945644e-01 
4.793402e-01 
4.652871e-01 
4.524902e-01 
4.410353e-01 
4.310063e-01 
4.224806e-01 
4.155279e-01 
4.102124e-01 
4.065900e-01 
4.047030e-01 
4.055365e-01 
4.086260e-01 
4.136296e-01 
4.204049e-01 
4.288451e-01 
4.388497e-01 
4.503207e-01 
4.631621e-01 
4.772807e-01 
4.925867e-01 
5.089940e-01 
5.264213e-01 
5.447916e-01 
5.640330e-01 
5.840771e-01 
6.048617e-01 
6.263297e-01 
6.484286e-01 
6.711102e-01 
6.943303e-01 
7.180482e-01 
7.422267e-01 
7.668321e-01 
7.918331e-01 
8.172015e-01 
8.429116e-01 
1.125445e+00 
1.097097e+00 
1.068901e+00 
1.040864e+00 
1.012997e+00 
9.853119e-01 
9.578204e-01 
9.305363e-01 
9.034744e-01 
8.766511e-01 
8.500843e-01 
8.237936e-01 
7.978005e-01 
7.721284e-01 
7.468030e-01 
7.218525e-01 
6.973078e-01 
6.732033e-01 
6.495762e-01 
6.264678e-01 
6.039230e-01 
5.819908e-01 
5.607247e-01 
5.401834e-01 
5.204311e-01 
5.015377e-01 
4.835792e-01 
4.666372e-01 
4.507986e-01 
4.361546e-01 
4.227998e-01 
4.108302e-01 
4.003402e-01 
3.914175e-01 
3.841417e-01 
3.785856e-01 
3.748130e-01 
3.728721e-01 
3.738005e-01 
3.770536e-01 
3.823085e-01 
3.894219e-01 
3.982755e-01 
4.087561e-01 
4.207531e-01 
4.341594e-01 
4.488717e-01 
4.647912e-01 
4.818242e-01 
4.998826e-01 
5.188841e-01 
5.387520e-01 
5.594146e-01 
5.808071e-01 
6.028702e-01 
6.255501e-01 
6.487972e-01 
6.725667e-01 
6.968174e-01 
7.215119e-01 
7.466163e-01 
7.720995e-01 
7.979335e-01 
8.240928e-01 
1.111364e+00 
1.082714e+00 
1.054204e+00 
1.025842e+00 
9.976375e-01 
9.696015e-01 
9.417459e-01 
9.140836e-01 
8.866287e-01 
8.593968e-01 
8.324051e-01 
8.056725e-01 
7.792198e-01 
7.530699e-01 
7.272481e-01 
7.017819e-01 
6.767021e-01 
6.520425e-01 
6.278407e-01 
6.041380e-01 
5.809801e-01 
5.584174e-01 
5.365053e-01 
5.153047e-01 
4.948828e-01 
4.753132e-01 
4.566770e-01 
4.390620e-01 
4.225630e-01 
4.072805e-01 
3.933198e-01 
3.807885e-01 
3.697934e-01 
3.604347e-01 
3.528035e-01 
3.469829e-01 
3.430461e-01 
3.410489e-01 
3.420732e-01 
3.454991e-01 
3.510288e-01 
3.585140e-01 
3.678212e-01 
3.788215e-01 
3.913903e-01 
4.054078e-01 
4.207592e-01 
4.373358e-01 
4.550353e-01 
4.737625e-01 
4.934292e-01 
5.139540e-01 
5.352619e-01 
5.572855e-01 
5.799637e-01 
6.032411e-01 
6.270676e-01 
6.513976e-01 
6.761898e-01 
7.014068e-01 
7.270149e-01 
7.529833e-01 
7.792845e-01 
8.058932e-01 
1.097908e+00 
1.068963e+00 
1.040147e+00 
1.011466e+00 
9.829302e-01 
9.545496e-01 
9.263355e-01 
8.983001e-01 
8.704568e-01 
8.428204e-01 
8.154071e-01 
7.882350e-01 
7.613241e-01 
7.346966e-01 
7.083768e-01 
6.823919e-01 
6.567718e-01 
6.315500e-01 
6.067635e-01 
5.824538e-01 
5.586669e-01 
5.354538e-01 
5.128716e-01 
4.909832e-01 
4.698586e-01 
4.495753e-01 
4.302193e-01 
4.118850e-01 
3.946755e-01 
3.787017e-01 
3.640808e-01 
3.509342e-01 
3.393836e-01 
3.295439e-01 
3.215200e-01 
3.154071e-01 
3.112896e-01 
3.092336e-01 
3.103539e-01 
3.139639e-01 
3.197971e-01 
3.276938e-01 
3.375010e-01 
3.490713e-01 
3.622638e-01 
3.769442e-01 
3.929848e-01 
4.102658e-01 
4.286755e-01 
4.481110e-01 
4.684783e-01 
4.896910e-01 
5.116711e-01 
5.343486e-01 
5.576610e-01 
5.815517e-01 
6.059700e-01 
6.308701e-01 
6.562110e-01 
6.819554e-01 
7.080702e-01 
7.345252e-01 
7.612934e-01 
7.883502e-01 
1.085100e+00 
1.055868e+00 
1.026753e+00 
9.977619e-01 
9.689026e-01 
9.401849e-01 
9.116195e-01 
8.832177e-01 
8.549922e-01 
8.269569e-01 
7.991272e-01 
7.715201e-01 
7.441544e-01 
7.170513e-01 
6.902344e-01 