# vtk DataFile Version 2.0 
Quadtree Mesh 
ASCII 
DATASET UNSTRUCTURED_GRID 
POINTS 4096 double 
-1.000000e+00 -1.000000e+00 0.000000e+00
-9.682540e-01 -1.000000e+00 0.000000e+00
-9.365079e-01 -1.000000e+00 0.000000e+00
-9.047619e-01 -1.000000e+00 0.000000e+00
-8.730159e-01 -1.000000e+00 0.000000e+00
-8.412698e-01 -1.000000e+00 0.000000e+00
-8.095238e-01 -1.000000e+00 0.000000e+00
-7.777778e-01 -1.000000e+00 0.000000e+00
-7.460317e-01 -1.000000e+00 0.000000e+00
-7.142857e-01 -1.000000e+00 0.000000e+00
-6.825397e-01 -1.000000e+00 0.000000e+00
-6.507937e-01 -1.000000e+00 0.000000e+00
-6.190476e-01 -1.000000e+00 0.000000e+00
-5.873016e-01 -1.000000e+00 0.000000e+00
-5.555556e-01 -1.000000e+00 0.000000e+00
-5.238095e-01 -1.000000e+00 0.000000e+00
-4.920635e-01 -1.000000e+00 0.000000e+00
-4.603175e-01 -1.000000e+00 0.000000e+00
-4.285714e-01 -1.000000e+00 0.000000e+00
-3.968254e-01 -1.000000e+00 0.000000e+00
-3.650794e-01 -1.000000e+00 0.000000e+00
-3.333333e-01 -1.000000e+00 0.000000e+00
-3.015873e-01 -1.000000e+00 0.000000e+00
-2.698413e-01 -1.000000e+00 0.000000e+00
-2.380952e-01 -1.000000e+00 0.000000e+00
-2.063492e-01 -1.000000e+00 0.000000e+00
-1.746032e-01 -1.000000e+00 0.000000e+00
-1.428571e-01 -1.000000e+00 0.000000e+00
-1.111111e-01 -1.000000e+00 0.000000e+00
-7.936508e-02 -1.000000e+00 0.000000e+00
-4.761905e-02 -1.000000e+00 0.000000e+00
-1.587302e-02 -1.000000e+00 0.000000e+00
1.587302e-02 -1.000000e+00 0.000000e+00
4.761905e-02 -1.000000e+00 0.000000e+00
7.936508e-02 -1.000000e+00 0.000000e+00
1.111111e-01 -1.000000e+00 0.000000e+00
1.428571e-01 -1.000000e+00 0.000000e+00
1.746032e-01 -1.000000e+00 0.000000e+00
2.063492e-01 -1.000000e+00 0.000000e+00
2.380952e-01 -1.000000e+00 0.000000e+00
2.698413e-01 -1.000000e+00 0.000000e+00
3.015873e-01 -1.000000e+00 0.000000e+00
3.333333e-01 -1.000000e+00 0.000000e+00
3.650794e-01 -1.000000e+00 0.000000e+00
3.968254e-01 -1.000000e+00 0.000000e+00
4.285714e-01 -1.000000e+00 0.000000e+00
4.603175e-01 -1.000000e+00 0.000000e+00
4.920635e-01 -1.000000e+00 0.000000e+00
5.238095e-01 -1.000000e+00 0.000000e+00
5.555556e-01 -1.000000e+00 0.000000e+00
5.873016e-01 -1.000000e+00 0.000000e+00
6.190476e-01 -1.000000e+00 0.000000e+00
6.507937e-01 -1.000000e+00 0.000000e+00
6.825397e-01 -1.000000e+00 0.000000e+00
7.142857e-01 -1.000000e+00 0.000000e+00
7.460317e-01 -1.000000e+00 0.000000e+00
7.777778e-01 -1.000000e+00 0.000000e+00
8.095238e-01 -1.000000e+00 0.000000e+00
8.412698e-01 -1.000000e+00 0.000000e+00
8.730159e-01 -1.000000e+00 0.000000e+00
9.047619e-01 -1.000000e+00 0.000000e+00
9.365079e-01 -1.000000e+00 0.000000e+00
9.682540e-01 -1.000000e+00 0.000000e+00
1.000000e+00 -1.000000e+00 0.000000e+00
-1.000000e+00 -9.682540e-01 0.000000e+00
-9.682540e-01 -9.682540e-01 0.000000e+00
-9.365079e-01 -9.682540e-01 0.000000e+00
-9.047619e-01 -9.682540e-01 0.000000e+00
-8.730159e-01 -9.682540e-01 0.000000e+00
-8.412698e-01 -9.682540e-01 0.000000e+00
-8.095238e-01 -9.682540e-01 0.000000e+00
-7.777778e-01 -9.682540e-01 0.000000e+00
-7.460317e-01 -9.682540e-01 0.000000e+00
-7.142857e-01 -9.682540e-01 0.000000e+00
-6.825397e-01 -9.682540e-01 0.000000e+00
-6.507937e-01 -9.682540e-01 0.000000e+00
-6.190476e-01 -9.682540e-01 0.000000e+00
-5.873016e-01 -9.682540e-01 0.000000e+00
-5.555556e-01 -9.682540e-01 0.000000e+00
-5.238095e-01 -9.682540e-01 0.000000e+00
-4.920635e-01 -9.682540e-01 0.000000e+00
-4.603175e-01 -9.682540e-01 0.000000e+00
-4.285714e-01 -9.682540e-01 0.000000e+00
-3.968254e-01 -9.682540e-01 0.000000e+00
-3.650794e-01 -9.682540e-01 0.000000e+00
-3.333333e-01 -9.682540e-01 0.000000e+00
-3.015873e-01 -9.682540e-01 0.000000e+00
-2.698413e-01 -9.682540e-01 0.000000e+00
-2.380952e-01 -9.682540e-01 0.000000e+00
-2.063492e-01 -9.682540e-01 0.000000e+00
-1.746032e-01 -9.682540e-01 0.000000e+00
-1.428571e-01 -9.682540e-01 0.000000e+00
-1.111111e-01 -9.682540e-01 0.000000e+00
-7.936508e-02 -9.682540e-01 0.000000e+00
-4.761905e-02 -9.682540e-01 0.000000e+00
-1.587302e-02 -9.682540e-01 0.000000e+00
1.587302e-02 -9.682540e-01 0.000000e+00
4.761905e-02 -9.682540e-01 0.000000e+00
7.936508e-02 -9.682540e-01 0.000000e+00
1.111111e-01 -9.682540e-01 0.000000e+00
1.428571e-01 -9.682540e-01 0.000000e+00
1.746032e-01 -9.682540e-01 0.000000e+00
2.063492e-01 -9.682540e-01 0.000000e+00
2.380952e-01 -9.682540e-01 0.000000e+00
2.698413e-01 -9.682540e-01 0.000000e+00
3.015873e-01 -9.682540e-01 0.000000e+00
3.333333e-01 -9.682540e-01 0.000000e+00
3.650794e-01 -9.682540e-01 0.000000e+00
3.968254e-01 -9.682540e-01 0.000000e+00
4.285714e-01 -9.682540e-01 0.000000e+00
4.603175e-01 -9.682540e-01 0.000000e+00
4.920635e-01 -9.682540e-01 0.000000e+00
5.238095e-01 -9.682540e-01 0.000000e+00
5.555556e-01 -9.682540e-01 0.000000e+00
5.873016e-01 -9.682540e-01 0.000000e+00
6.190476e-01 -9.682540e-01 0.000000e+00
6.507937e-01 -9.682540e-01 0.000000e+00
6.825397e-01 -9.682540e-01 0.000000e+00
7.142857e-01 -9.682540e-01 0.000000e+00
7.460317e-01 -9.682540e-01 0.000000e+00
7.777778e-01 -9.682540e-01 0.000000e+00
8.095238e-01 -9.682540e-01 0.000000e+00
8.412698e-01 -9.682540e-01 0.000000e+00
8.730159e-01 -9.682540e-01 0.000000e+00
9.047619e-01 -9.682540e-01 0.000000e+00
9.365079e-01 -9.682540e-01 0.000000e+00
9.682540e-01 -9.682540e-01 0.000000e+00
1.000000e+00 -9.682540e-01 0.000000e+00
-1.000000e+00 -9.365079e-01 0.000000e+00
-9.682540e-01 -9.365079e-01 0.000000e+00
-9.365079e-01 -9.365079e-01 0.000000e+00
-9.047619e-01 -9.365079e-01 0.000000e+00
-8.730159e-01 -9.365079e-01 0.000000e+00
-8.412698e-01 -9.365079e-01 0.000000e+00
-8.095238e-01 -9.365079e-01 0.000000e+00
-7.777778e-01 -9.365079e-01 0.000000e+00
-7.460317e-01 -9.365079e-01 0.000000e+00
-7.142857e-01 -9.365079e-01 0.000000e+00
-6.825397e-01 -9.365079e-01 0.000000e+00
-6.507937e-01 -9.365079e-01 0.000000e+00
-6.190476e-01 -9.365079e-01 0.000000e+00
-5.873016e-01 -9.365079e-01 0.000000e+00
-5.555556e-01 -9.365079e-01 0.000000e+00
-5.238095e-01 -9.365079e-01 0.000000e+00
-4.920635e-01 -9.365079e-01 0.000000e+00
-4.603175e-01 -9.365079e-01 0.000000e+00
-4.285714e-01 -9.365079e-01 0.000000e+00
-3.968254e-01 -9.365079e-01 0.000000e+00
-3.650794e-01 -9.365079e-01 0.000000e+00
-3.333333e-01 -9.365079e-01 0.000000e+00
-3.015873e-01 -9.365079e-01 0.000000e+00
-2.698413e-01 -9.365079e-01 0.000000e+00
-2.380952e-01 -9.365079e-01 0.000000e+00
-2.063492e-01 -9.365079e-01 0.000000e+00
-1.746032e-01 -9.365079e-01 0.000000e+00
-1.428571e-01 -9.365079e-01 0.000000e+00
-1.111111e-01 -9.365079e-01 0.000000e+00
-7.936508e-02 -9.365079e-01 0.000000e+00
-4.761905e-02 -9.365079e-01 0.000000e+00
-1.587302e-02 -9.365079e-01 0.000000e+00
1.587302e-02 -9.365079e-01 0.000000e+00
4.761905e-02 -9.365079e-01 0.000000e+00
7.936508e-02 -9.365079e-01 0.000000e+00
1.111111e-01 -9.365079e-01 0.000000e+00
1.428571e-01 -9.365079e-01 0.000000e+00
1.746032e-01 -9.365079e-01 0.000000e+00
2.063492e-01 -9.365079e-01 0.000000e+00
2.380952e-01 -9.365079e-01 0.000000e+00
2.698413e-01 -9.365079e-01 0.000000e+00
3.015873e-01 -9.365079e-01 0.000000e+00
3.333333e-01 -9.365079e-01 0.000000e+00
3.650794e-01 -9.365079e-01 0.000000e+00
3.968254e-01 -9.365079e-01 0.000000e+00
4.285714e-01 -9.365079e-01 0.000000e+00
4.603175e-01 -9.365079e-01 0.000000e+00
4.920635e-01 -9.365079e-01 0.000000e+00
5.238095e-01 -9.365079e-01 0.000000e+00
5.555556e-01 -9.365079e-01 0.000000e+00
5.873016e-01 -9.365079e-01 0.000000e+00
6.190476e-01 -9.365079e-01 0.000000e+00
6.507937e-01 -9.365079e-01 0.000000e+00
6.825397e-01 -9.365079e-01 0.000000e+00
7.142857e-01 -9.365079e-01 0.000000e+00
7.460317e-01 -9.365079e-01 0.000000e+00
7.777778e-01 -9.365079e-01 0.000000e+00
8.095238e-01 -9.365079e-01 0.000000e+00
8.412698e-01 -9.365079e-01 0.000000e+00
8.730159e-01 -9.365079e-01 0.000000e+00
9.047619e-01 -9.365079e-01 0.000000e+00
9.365079e-01 -9.365079e-01 0.000000e+00
9.682540e-01 -9.365079e-01 0.000000e+00
1.000000e+00 -9.365079e-01 0.000000e+00
-1.000000e+00 -9.047619e-01 0.000000e+00
-9.682540e-01 -9.047619e-01 0.000000e+00
-9.365079e-01 -9.047619e-01 0.000000e+00
-9.047619e-01 -9.047619e-01 0.000000e+00
-8.730159e-01 -9.047619e-01 0.000000e+00
-8.412698e-01 -9.047619e-01 0.000000e+00
-8.095238e-01 -9.047619e-01 0.000000e+00
-7.777778e-01 -9.047619e-01 0.000000e+00
-7.460317e-01 -9.047619e-01 0.000000e+00
-7.142857e-01 -9.047619e-01 0.000000e+00
-6.825397e-01 -9.047619e-01 0.000000e+00
-6.507937e-01 -9.047619e-01 0.000000e+00
-6.190476e-01 -9.047619e-01 0.000000e+00
-5.873016e-01 -9.047619e-01 0.000000e+00
-5.555556e-01 -9.047619e-01 0.000000e+00
-5.238095e-01 -9.047619e-01 0.000000e+00
-4.920635e-01 -9.047619e-01 0.000000e+00
-4.603175e-01 -9.047619e-01 0.000000e+00
-4.285714e-01 -9.047619e-01 0.000000e+00
-3.968254e-01 -9.047619e-01 0.000000e+00
-3.650794e-01 -9.047619e-01 0.000000e+00
-3.333333e-01 -9.047619e-01 0.000000e+00
-3.015873e-01 -9.047619e-01 0.000000e+00
-2.698413e-01 -9.047619e-01 0.000000e+00
-2.380952e-01 -9.047619e-01 0.000000e+00
-2.063492e-01 -9.047619e-01 0.000000e+00
-1.746032e-01 -9.047619e-01 0.000000e+00
-1.428571e-01 -9.047619e-01 0.000000e+00
-1.111111e-01 -9.047619e-01 0.000000e+00
-7.936508e-02 -9.047619e-01 0.000000e+00
-4.761905e-02 -9.047619e-01 0.000000e+00
-1.587302e-02 -9.047619e-01 0.000000e+00
1.587302e-02 -9.047619e-01 0.000000e+00
4.761905e-02 -9.047619e-01 0.000000e+00
7.936508e-02 -9.047619e-01 0.000000e+00
1.111111e-01 -9.047619e-01 0.000000e+00
1.428571e-01 -9.047619e-01 0.000000e+00
1.746032e-01 -9.047619e-01 0.000000e+00
2.063492e-01 -9.047619e-01 0.000000e+00
2.380952e-01 -9.047619e-01 0.000000e+00
2.698413e-01 -9.047619e-01 0.000000e+00
3.015873e-01 -9.047619e-01 0.000000e+00
3.333333e-01 -9.047619e-01 0.000000e+00
3.650794e-01 -9.047619e-01 0.000000e+00
3.968254e-01 -9.047619e-01 0.000000e+00
4.285714e-01 -9.047619e-01 0.000000e+00
4.603175e-01 -9.047619e-01 0.000000e+00
4.920635e-01 -9.047619e-01 0.000000e+00
5.238095e-01 -9.047619e-01 0.000000e+00
5.555556e-01 -9.047619e-01 0.000000e+00
5.873016e-01 -9.047619e-01 0.000000e+00
6.190476e-01 -9.047619e-01 0.000000e+00
[...]
POINT_DATA 4096 
SCALARS concentration double 1 
LOOKUP_TABLE default 
1.462569e+00 
1.438947e+00 
1.415542e+00 
1.392399e+00 
1.369534e+00 
1.346961e+00 
1.324693e+00 
1.302744e+00 
1.281128e+00 
1.259859e+00 
1.238954e+00 
1.218428e+00 
1.198297e+00 
1.178580e+00 
1.159293e+00 
1.140457e+00 
1.122090e+00 
1.104212e+00 
1.086845e+00 
1.070010e+00 
1.053730e+00 
1.038027e+00 
1.022927e+00 
1.008452e+00 
9.946276e-01 
9.814793e-01 
9.690322e-01 
9.573121e-01 
9.463447e-01 
9.361558e-01 
9.267710e-01 
9.182158e-01 
9.105151e-01 
9.036894e-01 
8.977553e-01 
8.927297e-01 
8.886291e-01 
8.854682e-01 
8.832601e-01 
8.820194e-01 
8.820027e-01 
8.834081e-01 
8.861217e-01 
8.900133e-01 
8.949798e-01 
9.009508e-01 
9.078772e-01 
9.157216e-01 
9.244521e-01 
9.340394e-01 
9.444550e-01 
9.556697e-01 
9.676548e-01 
9.803825e-01 
9.938255e-01 
1.007957e+00 
1.022750e+00 
1.038178e+00 
1.054217e+00 
1.070842e+00 
1.088028e+00 
1.105753e+00 
1.123994e+00 
1.142730e+00 
1.441465e+00 
1.417546e+00 
1.393842e+00 
1.370394e+00 
1.347220e+00 
1.324333e+00 
1.301747e+00 
1.279476e+00 
1.257532e+00 
1.235933e+00 
1.214692e+00 
1.193827e+00 
1.173355e+00 
1.153293e+00 
1.133660e+00 
1.114475e+00 
1.095758e+00 
1.077530e+00 
1.059814e+00 
1.042631e+00 
1.026006e+00 
1.009962e+00 
9.945246e-01 
9.797188e-01 
9.655711e-01 
9.521078e-01 
9.393561e-01 
9.273433e-01 
9.160966e-01 
9.056435e-01 
8.960115e-01 
8.872279e-01 
8.793195e-01 
8.723088e-01 
8.662135e-01 
8.610519e-01 
8.568421e-01 
8.536001e-01 
8.513400e-01 
8.500765e-01 
8.501044e-01 
8.516087e-01 
8.544512e-01 
8.584908e-01 
8.636228e-01 
8.697775e-01 
8.769070e-01 
8.849739e-01 
8.939458e-01 
9.037920e-01 
9.144825e-01 
9.259869e-01 
9.382746e-01 
9.513161e-01 
9.650826e-01 
9.795454e-01 
9.946765e-01 
1.010448e+00 
1.026835e+00 
1.043810e+00 
1.061348e+00 
1.079426e+00 
1.098021e+00 
1.117110e+00 
1.420712e+00 
1.396491e+00 
1.372482e+00 
1.348725e+00 
1.325237e+00 
1.302032e+00 
1.279123e+00 
1.256524e+00 
1.234248e+00 
1.212312e+00 
1.190729e+00 
1.169519e+00 
1.148697e+00 
1.128282e+00 
1.108293e+00 
1.088750e+00 
1.069673e+00 
1.051086e+00 
1.033009e+00 
1.015467e+00 
9.984848e-01 
9.820869e-01 
9.662996e-01 
9.511498e-01 
9.366650e-01 
9.228733e-01 
9.098032e-01 
8.974839e-01 
8.859444e-01 
8.752140e-01 
8.653220e-01 
8.562976e-01 
8.481697e-01 
8.409625e-01 
8.346956e-01 
8.293891e-01 
8.250626e-01 
8.217337e-01 
8.194174e-01 
8.181291e-01 
8.182051e-01 
8.198126e-01 
8.227873e-01 
8.269786e-01 
8.322810e-01 
8.386261e-01 
8.459668e-01 
8.542657e-01 
8.634893e-01 
8.736054e-01 
8.845824e-01 
8.963883e-01 
9.089906e-01 
9.223578e-01 
9.364591e-01 
9.512644e-01 
9.667442e-01 
9.828697e-01 
9.996129e-01 
1.016947e+00 
1.034846e+00 
1.053285e+00 
1.072239e+00 
1.091687e+00 
1.400317e+00 
1.375790e+00 
1.351474e+00 
1.327405e+00 
1.303600e+00 
1.280072e+00 
1.256835e+00 
1.233903e+00 
1.211289e+00 
1.189009e+00 
1.167079e+00 
1.145515e+00 
1.124336e+00 
1.103560e+00 
1.083207e+00 
1.063296e+00 
1.043850e+00 
1.024892e+00 
1.006444e+00 
9.885309e-01 
9.711788e-01 
9.544139e-01 
9.382635e-01 
9.227558e-01 
9.079198e-01 
8.937852e-01 
8.803824e-01 
8.677421e-01 
8.558954e-01 
8.448736e-01 
8.347082e-01 
8.254305e-01 
8.170711e-01 
8.096565e-01 
8.032082e-01 
7.977484e-01 
7.932985e-01 
7.898778e-01 
7.875024e-01 
7.861882e-01 
7.863172e-01 
7.880326e-01 
7.911435e-01 
7.954915e-01 
8.009709e-01 
8.075152e-01 
8.150776e-01 
8.236203e-01 
8.331083e-01 
8.435079e-01 
8.547853e-01 
8.669068e-01 
8.798379e-01 
8.935448e-01 
9.079949e-01 
9.231563e-01 
9.389978e-01 
9.554892e-01 
9.726012e-01 
9.903057e-01 
1.008576e+00 
1.027385e+00 
1.046709e+00 
1.066524e+00 
1.380291e+00 
1.355457e+00 
1.330831e+00 
1.306447e+00 
1.282321e+00 
1.258467e+00 
1.234897e+00 
1.211627e+00 
1.188669e+00 
1.166040e+00 
1.143756e+00 
1.121832e+00 
1.100288e+00 
1.079143e+00 
1.058416e+00 
1.038128e+00 
1.018303e+00 
9.989626e-01 
9.801317e-01 
9.618357e-01 
9.441012e-01 
9.269560e-01 
9.104285e-01 
8.945485e-01 
8.793465e-01 
8.648539e-01 
8.511029e-01 
8.381264e-01 
8.259574e-01 
8.146296e-01 
8.041766e-01 
7.946319e-01 
7.860283e-01 
7.783943e-01 
7.717540e-01 
7.661318e-01 
7.615513e-01 
7.580334e-01 
7.555958e-01 
7.542550e-01 
7.544422e-01 
7.562702e-01 
7.595219e-01 
7.640323e-01 
7.696968e-01 
7.764502e-01 
7.842462e-01 
7.930459e-01 
8.028128e-01 
8.135107e-01 
8.251039e-01 
8.375563e-01 
8.508317e-01 
8.648938e-01 
8.797077e-01 
8.952397e-01 
9.114570e-01 
9.283278e-01 
9.458215e-01 
9.639086e-01 
9.825610e-01 
1.001752e+00 
1.021455e+00 
1.041647e+00 
1.360647e+00 
1.335505e+00 
1.310566e+00 
1.285864e+00 
1.261415e+00 
1.237230e+00 
1.213324e+00 
1.189710e+00 
1.166404e+00 
1.143419e+00 
1.120774e+00 
1.098483e+00 
1.076567e+00 
1.055044e+00 
1.033935e+00 
1.013262e+00 
9.930467e-01 
9.733137e-01 
9.540882e-01 
9.353966e-01 
9.172667e-01 
8.997273e-01 
8.828083e-01 
8.665410e-01 
8.509574e-01 
8.360910e-01 
8.219759e-01 
8.086470e-01 
7.961399e-01 
7.844903e-01 
7.737342e-01 
7.639075e-01 
7.550456e-01 
7.471795e-01 
7.403357e-01 
7.345415e-01 
7.298224e-01 
7.262016e-01 
7.236985e-01 
7.223305e-01 
7.225814e-01 
7.245270e-01 
7.279244e-01 
7.326039e-01 
7.384625e-01 
7.454366e-01 
7.534796e-01 
7.625511e-01 
7.726124e-01 
7.836251e-01 
7.955507e-01 
8.083508e-01 
8.219870e-01 
8.364205e-01 
8.516143e-01 
8.675326e-01 
8.841406e-01 
9.014050e-01 
9.192939e-01 
9.377764e-01 
9.568234e-01 
9.764069e-01 
9.965003e-01 
1.017078e+00 
1.341398e+00 
1.315946e+00 
1.290694e+00 
1.265672e+00 
1.240896e+00 
1.216378e+00 
1.192131e+00 
1.168170e+00 
1.144509e+00 
1.121164e+00 
1.098151e+00 
1.075487e+00 
1.053192e+00 
1.031284e+00 
1.009784e+00 
9.887154e-01 
9.681003e-01 
9.479637e-01 
9.283319e-01 
9.092322e-01 
8.906934e-01 
8.727456e-01 
8.554201e-01 
8.387498e-01 
8.227686e-01 
8.075118e-01 
7.930156e-01 
7.793172e-01 
7.664544e-01 
7.544657e-01 
7.433896e-01 
7.332649e-01 
7.241295e-01 
7.160171e-01 
7.089574e-01 
7.029803e-01 
6.981141e-01 
6.943842e-01 
6.918120e-01 
6.904161e-01 
6.907359e-01 
6.928036e-01 
6.963518e-01 
7.012080e-01 
7.072713e-01 
7.144790e-01 
7.227839e-01 
7.321434e-01 
7.425164e-01 
7.538616e-01 
7.661377e-01 
7.793035e-01 
7.933183e-01 
8.081409e-01 
8.237316e-01 
8.400525e-01 
8.570670e-01 
8.747402e-01 
8.930385e-01 
9.119300e-01 
9.313842e-01 
9.513723e-01 
9.718667e-01 
9.928415e-01 
1.322563e+00 
1.296799e+00 
1.271232e+00 
1.245888e+00 
1.220783e+00 
1.195929e+00 
1.171339e+00 
1.147027e+00 
1.123008e+00 
1.099297e+00 
1.075911e+00 
1.052868e+00 
1.030185e+00 
1.007885e+00 
9.859861e-01 
9.645123e-01 
9.434872e-01 
9.229362e-01 
9.028861e-01 
8.833653e-01 
8.644038e-01 
8.460329e-01 
8.282854e-01 
8.111958e-01 
7.948000e-01 
7.791350e-01 
7.642393e-01 
7.501526e-01 
7.369152e-01 
7.245685e-01 
7.131539e-01 
7.027133e-01 
6.932875e-01 
6.849133e-01 
6.776238e-01 
6.714518e-01 
6.664287e-01 
6.625825e-01 
6.599371e-01 
6.585122e-01 
6.589053e-01 
6.610987e-01 
6.648030e-01 
6.698443e-01 
6.761239e-01 
6.835796e-01 
6.921626e-01 
7.018279e-01 
7.125312e-01 
7.242281e-01 
7.368741e-01 
7.504249e-01 
7.648371e-01 
7.800673e-01 
7.960729e-01 
8.128136e-01 
8.302512e-01 
8.483488e-01 
8.670715e-01 
8.863860e-01 
9.062607e-01 
9.266657e-01 
9.475726e-01 
9.689548e-01 
1.304158e+00 
1.278084e+00 
1.252201e+00 
1.226535e+00 
1.201100e+00 
1.175908e+00 
1.150972e+00 
1.126306e+00 
1.101924e+00 
1.077843e+00 
1.054079e+00 
1.030649e+00 
1.007574e+00 
9.848720e-01 
9.625660e-01 
9.406784e-01 
9.192335e-01 
8.982571e-01 
8.777770e-01 
8.578223e-01 
8.384242e-01 
8.196152e-01 
8.014298e-01 
7.839039e-01 
7.670752e-01 
7.509832e-01 
7.356685e-01 
7.211733e-01 
7.075411e-01 
6.948159e-01 
6.830427e-01 
6.722665e-01 
6.625316e-01 
6.538785e-01 
6.463435e-01 
6.399632e-01 
6.347722e-01 
6.308017e-01 
6.280782e-01 
6.266230e-01 
6.270896e-01 
6.294099e-01 
6.332754e-01 
6.385111e-01 
6.450199e-01 
6.527393e-01 
6.616182e-01 
6.716084e-01 
6.826621e-01 
6.947311e-01 
7.077675e-01 
7.217239e-01 
7.365535e-01 
7.522107e-01 
7.686498e-01 
7.858283e-01 
8.037059e-01 
8.222441e-01 
8.414064e-01 
8.611581e-01 
8.814666e-01 
9.023009e-01 
9.236317e-01 
9.454318e-01 
1.286215e+00 
1.259830e+00 
1.233630e+00 
1.207639e+00 
1.181872e+00 
1.156339e+00 
1.131053e+00 
1.106029e+00 
1.081281e+00 
1.056824e+00 
1.032676e+00 
1.008853e+00 
9.853766e-01 
9.622658e-01 
9.395428e-01 
9.172310e-01 
8.953550e-01 
8.739413e-01 
8.530182e-01 
8.326157e-01 
8.127657e-01 
7.935023e-01 
7.748613e-01 
7.568803e-01 
7.395991e-01 
7.230593e-01 
7.073042e-01 
6.923787e-01 
6.783291e-01 
6.652031e-01 
6.530489e-01 
6.419154e-01 
6.318506e-01 
6.228988e-01 
6.151005e-01 
6.084964e-01 
6.031248e-01 
5.990206e-01 
5.962135e-01 
5.947267e-01 
5.952773e-01 
5.977335e-01 
6.017691e-01 
6.072109e-01 
6.139641e-01 
6.219651e-01 
6.311598e-01 
6.414958e-01 
6.529212e-01 
6.653838e-01 
6.788320e-01 
6.932147e-01 
7.084819e-01 
7.245853e-01 
7.414763e-01 
7.591100e-01 
7.774440e-01 
7.964380e-01 
8.160541e-01 
8.362561e-01 
8.570102e-01 
8.782845e-01 
9.000491e-01 
9.222758e-01 
1.268739e+00 
1.242042e+00 
1.215525e+00 
1.189210e+00 
1.163109e+00 
1.137234e+00 
1.111597e+00 
1.086212e+00 
1.061093e+00 
1.036257e+00 
1.011720e+00 
9.874996e-01 
9.636156e-01 
9.400885e-01 
9.169404e-01 
8.941951e-01 
8.718778e-01 
8.500156e-01 
8.286371e-01 
8.077731e-01 
7.874566e-01 
7.677226e-01 
7.486085e-01 
7.301537e-01 
7.124000e-01 
6.953913e-01 
6.791737e-01 
6.637948e-01 
6.493045e-01 
6.357538e-01 
6.231948e-01 
6.116805e-01 
6.012631e-01 
5.919914e-01 
5.839106e-01 
5.770659e-01 
5.715002e-01 
5.672522e-01 
5.643556e-01 
5.628359e-01 
5.634757e-01 
5.660727e-01 
5.702865e-01 
5.759472e-01 
5.829617e-01 
5.912642e-01 
6.007964e-01 
6.115013e-01 
6.233220e-01 
6.362019e-01 
6.500851e-01 
6.649167e-01 
6.806434e-01 
6.972135e-01 
7.145760e-01 
7.326833e-01 
7.514908e-01 
7.709566e-01 
7.910409e-01 
8.117064e-01 
8.329181e-01 
8.546432e-01 
8.768511e-01 
8.995129e-01 
1.251744e+00 
1.224738e+00 
1.197905e+00 
1.171265e+00 
1.144831e+00 
1.118612e+00 
1.092623e+00 
1.066875e+00 
1.041384e+00 
1.016166e+00 
9.912359e-01 
9.666130e-01 
9.423162e-01 
9.183664e-01 
8.947858e-01 
8.715983e-01 
8.488296e-01 
8.265072e-01 
8.046606e-01 
7.833213e-01 
7.625231e-01 
7.423020e-01 
7.226968e-01 
7.037487e-01 
6.855017e-01 
6.680019e-01 
6.512982e-01 
6.354416e-01 
6.204852e-01 
6.064839e-01 
5.934942e-01 
5.815733e-01 
5.707787e-01 
5.611638e-01 
5.527794e-01 
5.456758e-01 
5.399011e-01 
5.354986e-01 
5.325061e-01 
5.309522e-01 
5.316863e-01 
5.344292e-01 
5.388305e-01 
5.447249e-01 
5.520199e-01 
5.606463e-01 
5.705403e-01 
5.816395e-01 
5.938814e-01 
6.072045e-01 
6.215480e-01 
6.368531e-01 
6.530625e-01 
6.701215e-01 
6.879762e-01 
7.065764e-01 
7.258754e-01 
7.458293e-01 
7.663968e-01 
7.875394e-01 
8.092209e-01 
8.314077e-01 
8.540684e-01 
8.771738e-01 
1.235251e+00 
1.207937e+00 
1.180789e+00 
1.153826e+00 
1.127058e+00 
1.100496e+00 
1.074154e+00 
1.048043e+00 
1.022178e+00 
9.965745e-01 
9.712491e-01 
9.462196e-01 
9.215053e-01 
8.971269e-01 
8.731067e-01 
8.494688e-01 
8.262391e-01 
8.034456e-01 
7.811183e-01 
7.592895e-01 
7.379940e-01 
7.172689e-01 
6.971542e-01 
6.776928e-01 
6.589306e-01 
6.409164e-01 
6.237019e-01 
6.073413e-01 
5.918914e-01 
5.774116e-01 
5.639626e-01 
5.516072e-01 
5.404079e-01 
5.304242e-01 
5.217128e-01 
5.143301e-01 
5.083298e-01 
5.037607e-01 
5.006654e-01 
4.990762e-01 
4.999093e-01 
5.028034e-01 
5.074032e-01 
5.135482e-01 
5.211453e-01 
5.301204e-01 
5.404032e-01 
5.519246e-01 
5.646162e-01 
5.784105e-01 
5.932419e-01 
6.090467e-01 
6.257639e-01 
6.433352e-01 
6.617038e-01 
6.808171e-01 
7.006259e-01 
7.210847e-01 
7.421506e-01 
7.637838e-01 
7.859472e-01 
8.086064e-01 
8.317293e-01 
8.552864e-01 
1.219277e+00 
1.191658e+00 
1.164197e+00 
1.136912e+00 
1.109812e+00 
1.082909e+00 
1.056213e+00 
1.029739e+00 
1.003499e+00 
9.775093e-01 
9.517861e-01 
9.263469e-01 
9.012109e-01 
8.763987e-01 
8.519326e-01 
8.278367e-01 
8.041372e-01 
7.808621e-01 
7.580421e-01 
7.357101e-01 
7.139016e-01 
6.926552e-01 
6.720120e-01 
6.520166e-01 
6.327167e-01 
6.141636e-01 
5.964118e-01 
5.795192e-01 
5.635466e-01 
5.485577e-01 
5.346186e-01 
5.217976e-01 
5.101636e-01 
4.997826e-01 
4.907182e-01 
4.830337e-01 
4.767894e-01 
4.720400e-01 
4.688340e-01 
4.672082e-01 
4.681441e-01 
4.711953e-01 
4.760061e-01 
4.824210e-01 
4.903444e-01 
4.996956e-01 
5.103968e-01 
5.223712e-01 
5.355434e-01 
5.498395e-01 
5.651884e-01 
5.815213e-01 
5.987729e-01 
6.168813e-01 
6.357867e-01 
6.554338e-01 
6.757714e-01 
6.967520e-01 
7.183314e-01 
7.404686e-01 
7.631257e-01 
7.862675e-01 
8.098616e-01 
8.338778e-01 
1.203842e+00 
1.175920e+00 
1.148150e+00 
1.120545e+00 
1.093115e+00 
1.065871e+00 
1.038824e+00 
1.011987e+00 
9.853724e-01 
9.589960e-01 
9.328736e-01 
9.070226e-01 
8.814617e-01 
8.562115e-01 
8.312940e-01 
8.067334e-01 
7.825558e-01 
7.587896e-01 
7.354654e-01 
7.126169e-01 
6.902803e-01 
6.684952e-01 
6.473043e-01 
6.267534e-01 
6.068924e-01 
5.877748e-01 
5.694582e-01 
5.520039e-01 
5.354771e-01 
5.199463e-01 
5.054835e-01 
4.921633e-01 
4.800614e-01 
4.692516e-01 
4.598051e-01 
4.517933e-01 
4.452840e-01 
4.403389e-01 
4.370131e-01 
4.353490e-01 
4.363897e-01 
4.396040e-01 
4.446404e-01 
4.513472e-01 
4.596241e-01 
4.693819e-01 
4.805340e-01 
4.929950e-01 
5.066815e-01 
5.215127e-01 
5.374108e-01 
5.543021e-01 
5.721164e-01 
5.907880e-01 
6.102541e-01 
6.304566e-01 
6.513422e-01 
6.728617e-01 
6.949696e-01 
7.176239e-01 
7.407860e-01 
7.644200e-01 
7.884933e-01 
8.129755e-01 
1.188964e+00 
1.160743e+00 
1.132666e+00 
1.104744e+00 
1.076988e+00 
1.049405e+00 
1.022009e+00 
9.948094e-01 
9.678212e-01 
9.410582e-01 
9.145360e-01 
8.882716e-01 
8.622834e-01 
8.365917e-01 
8.112183e-01 
7.861871e-01 
7.615241e-01 
7.372577e-01 
7.134189e-01 
6.900413e-01 
6.671620e-01 
6.448215e-01 
6.230635e-01 
6.019356e-01 
5.814895e-01 
5.617811e-01 
5.428709e-01 
5.248239e-01 
5.077097e-01 
4.916022e-01 
4.765795e-01 
4.627234e-01 
4.501171e-01 
4.388430e-01 
4.289817e-01 
4.206140e-01 
4.138160e-01 
4.086579e-01 
4.052026e-01 
4.034990e-01 
4.046484e-01 
4.080337e-01 
4.133136e-01 
4.203380e-01 
4.289994e-01 
4.391983e-01 
4.508377e-01 
4.638225e-01 
4.780602e-01 
4.934622e-01 
5.099439e-01 
5.274256e-01 
5.458323e-01 
5.650943e-01 
5.851455e-01 
6.059253e-01 
6.273782e-01 
6.494534e-01 
6.721044e-01 
6.952882e-01 
7.189657e-01 
7.431006e-01 
7.676601e-01 
7.926137e-01 
1.174654e+00 
1.146139e+00 
1.117758e+00 
1.089522e+00 
1.061441e+00 
1.033523e+00 
1.005779e+00 
9.782211e-01 
9.508608e-01 
9.237126e-01 
8.967914e-01 
8.701137e-01 
8.436976e-01 
8.175628e-01 
7.917306e-01 
7.662248e-01 
7.410711e-01 
7.162977e-01 
6.919355e-01 
6.680185e-01 
6.445839e-01 
6.216729e-01 
5.993303e-01 
5.776050e-01 
5.565504e-01 
5.362249e-01 
5.166919e-01 
4.980200e-01 
4.802834e-01 
4.635619e-01 
4.479403e-01 
4.335081e-01 
4.203576e-01 
4.085807e-01 
3.982689e-01 
3.895135e-01 
3.824009e-01 
3.770106e-01 
3.734149e-01 
3.716710e-01 
3.729248e-01 
3.764898e-01 
3.820347e-01 
3.894071e-01 
3.984889e-01 
4.091685e-01 
4.213366e-01 
4.348871e-01 
4.497177e-01 
4.657307e-01 
4.828343e-01 
5.009423e-01 
5.199745e-01 
5.398569e-01 
5.605202e-01 
5.819011e-01 
6.039424e-01 
6.265919e-01 
6.498019e-01 
6.735290e-01 
6.977335e-01 
7.223790e-01 
7.474326e-01 
7.728639e-01 
1.160956e+00 
1.132152e+00 
1.103472e+00 
1.074928e+00 
1.046527e+00 
1.018279e+00 
9.901916e-01 
9.622776e-01 
9.345485e-01 
9.070176e-01 
8.796992e-01 
8.526093e-01 
8.257652e-01 
7.991860e-01 
7.728928e-01 
7.469085e-01 
7.212586e-01 
6.959710e-01 
6.710764e-01 
6.466088e-01 
6.226057e-01 
5.991081e-01 
5.761616e-01 
5.538163e-01 
5.321272e-01 
5.111549e-01 
4.909656e-01 
4.716320e-01 
4.532331e-01 
4.358547e-01 
4.195890e-01 
4.045342e-01 
3.907930e-01 
3.784686e-01 
3.676643e-01 
3.584839e-01 
3.510258e-01 
3.453808e-01 
3.416323e-01 
3.398475e-01 
3.412165e-01 
3.449748e-01 
3.508107e-01 
3.585666e-01 
3.681103e-01 
3.793153e-01 
3.920585e-01 
4.062212e-01 
4.216897e-01 
4.383568e-01 
4.561225e-01 
4.748937e-01 
4.945852e-01 
5.151183e-01 
5.364204e-01 
5.584261e-01 
5.810767e-01 
6.043186e-01 
6.281035e-01 
6.523874e-01 
6.771304e-01 
7.022962e-01 
7.278521e-01 
7.537681e-01 
1.147878e+00 
1.118793e+00 
1.089822e+00 
1.060976e+00 
1.032261e+00 
1.003687e+00 
9.752627e-01 
9.469984e-01 
9.189055e-01 
8.909963e-01 
8.632846e-01 
8.357855e-01 
8.085156e-01 
7.814933e-01 
7.547389e-01 
7.282747e-01 
7.021255e-01 
6.763187e-01 
6.508846e-01 
6.258567e-01 
6.012725e-01 
5.771731e-01 
5.536045e-01 
5.306176e-01 
5.082688e-01 
4.866207e-01 
4.657424e-01 
4.457103e-01 
4.266083e-01 
4.085284e-01 
3.915707e-01 
3.758430e-01 
3.614590e-01 
3.485349e-01 
3.371885e-01 
3.275384e-01 
3.196973e-01 
3.137693e-01 
3.098514e-01 
3.080228e-01 
3.095082e-01 
3.134727e-01 
3.196286e-01 
3.278074e-01 
3.378584e-01 
3.496375e-01 
3.630056e-01 
3.778292e-01 
3.939823e-01 
4.113471e-01 
4.298145e-01 
4.492847e-01 
4.696668e-01 
4.908778e-01 
5.128421e-01 
5.354923e-01 
5.587682e-01 
5.826153e-01 
6.069848e-01 
6.318325e-01 
6.571188e-01 
6.828075e-01 
7.088664e-01 
7.352660e-01 
1.135437e+00 
1.106080e+00 
1.076826e+00 
1.047685e+00 
1.018664e+00 
9.897716e-01 
9.610162e-01 
9.324078e-01 
9.039569e-01 
8.756751e-01 
8.475752e-01 
8.196715e-01 
7.919796e-01 
7.645172e-01 
7.373035e-01 
7.103600e-01 
6.837107e-01 
6.573821e-01 
6.314037e-01 
6.058087e-01 
5.806337e-01 
5.559199e-01 
5.317132e-01 
5.080650e-01 
4.850327e-01 
4.626805e-01 
4.410801e-01 
4.203115e-01 
4.004635e-01 
3.816345e-01 
3.639329e-01 
3.474765e-01 
3.323919e-01 
3.188102e-01 
3.068659e-01 
2.966954e-01 
2.884290e-01 
2.821864e-01 
2.780809e-01 
2.762066e-01 
2.778091e-01 
2.819962e-01 
2.885085e-01 
2.971576e-01 
3.077700e-01 
3.201803e-01 
3.342308e-01 
3.497714e-01 
3.666617e-01 
3.847725e-01 
4.039853e-01 
4.241931e-01 
4.452994e-01 
4.672171e-01 
4.898681e-01 
5.131831e-01 
5.371008e-01 
5.615662e-01 
5.865304e-01 
6.119493e-01 
6.377836e-01 
6.639980e-01 
6.905607e-01 
7.174432e-01 
1.123652e+00 
1.094031e+00 
1.064505e+00 
1.035079e+00 
1.005761e+00 
9.765591e-01 
9.474809e-01 
9.185361e-01 
8.897347e-01 
8.610874e-01 
8.326062e-01 
8.043042e-01 
7.761962e-01 
7.482987e-01 
7.206299e-01 
6.932100e-01 
6.660621e-01 
6.392115e-01 
6.126868e-01 
5.865200e-01 
5.607471e-01 
5.354085e-01 
5.105499e-01 
4.862225e-01 
4.624843e-01 
4.394006e-01 
4.170453e-01 
3.955015e-01 
3.748627e-01 
3.552337e-01 
3.367313e-01 
3.194848e-01 
3.036345e-01 
2.893286e-01 
2.767216e-01 
2.659715e-01 
2.572299e-01 
2.506353e-01 
2.463211e-01 
2.443989e-01 
2.461177e-01 
2.505483e-01 
2.574611e-01 
2.666370e-01 
2.778737e-01 
2.909813e-01 
3.057797e-01 
3.220997e-01 
3.397851e-01 
3.586939e-01 
3.786981e-01 
3.996833e-01 
4.215478e-01 
4.442007e-01 
4.675618e-01 
4.915606e-01 
5.161351e-01 
5.412303e-01 
5.667973e-01 
5.927929e-01 
6.191785e-01 
6.459195e-01 
6.729853e-01 
7.003484e-01 
1.112540e+00 
1.082668e+00 
1.052879e+00 
1.023179e+00 
9.935758e-01 
9.640751e-01 
9.346850e-01 
9.054140e-01 
8.762715e-01 
8.472677e-01 
8.184138e-01 
7.897219e-01 
7.612057e-01 
7.328805e-01 
7.047631e-01 
6.768726e-01 
6.492303e-01 
6.218605e-01 
5.947903e-01 
5.680504e-01 
5.416755e-01 
5.157049e-01 
4.901833e-01 
4.651614e-01 
4.406971e-01 
4.168563e-01 
3.937141e-01 
3.713562e-01 
3.498804e-01 
3.293975e-01 
3.100332e-01 
2.919284e-01 
2.752388e-01 
2.601324e-01 
2.467871e-01 
2.353872e-01 
2.261110e-01 
2.191199e-01 
2.145718e-01 
2.125991e-01 
2.144325e-01 
2.191322e-01 
2.264994e-01 
2.362691e-01 
2.482042e-01 
2.620853e-01 
2.777060e-01 
2.948750e-01 
3.134183e-01 
3.331805e-01 
3.540237e-01 
3.758266e-01 
3.984825e-01 
4.218976e-01 
4.459904e-01 
4.706897e-01 
4.959334e-01 
5.216669e-01 
5.478424e-01 
5.744174e-01 
6.013545e-01 
6.286207e-01 
6.561863e-01 
6.840253e-01 
1.102119e+00 
1.072007e+00 
1.041968e+00 
1.012007e+00 
9.821296e-01 
9.523430e-01 
9.226537e-01 
8.930694e-01 
8.635984e-01 
8.342500e-01 
8.050346e-01 
7.759637e-01 
7.470498e-01 
7.183070e-01 
6.897505e-01 