# vtk DataFile Version 2.0 
Quadtree Mesh 
ASCII 
DATASET UNSTRUCTURED_GRID 
POINTS 4096 double 
-1.000000e+00 -1.000000e+00 0.000000e+00
-9.682540e-01 -1.000000e+00 0.000000e+00
-9.365079e-01 -1.000000e+00 0.000000e+00
-9.047619e-01 -1.000000e+00 0.000000e+00
-8.730159e-01 -1.000000e+00 0.000000e+00
-8.412698e-01 -1.000000e+00 0.000000e+00
-8.095238e-01 -1.000000e+00 0.000000e+00
-7.777778e-01 -1.000000e+00 0.000000e+00
-7.460317e-01 -1.000000e+00 0.000000e+00
-7.142857e-01 -1.000000e+00 0.000000e+00
-6.825397e-01 -1.000000e+00 0.000000e+00
-6.507937e-01 -1.000000e+00 0.000000e+00
-6.190476e-01 -1.000000e+00 0.000000e+00
-5.873016e-01 -1.000000e+00 0.000000e+00
-5.555556e-01 -1.000000e+00 0.000000e+00
-5.238095e-01 -1.000000e+00 0.000000e+00
-4.920635e-01 -1.000000e+00 0.000000e+00
-4.603175e-01 -1.000000e+00 0.000000e+00
-4.285714e-01 -1.000000e+00 0.000000e+00
-3.968254e-01 -1.000000e+00 0.000000e+00
-3.650794e-01 -1.000000e+00 0.000000e+00
-3.333333e-01 -1.000000e+00 0.000000e+00
-3.015873e-01 -1.000000e+00 0.000000e+00
-2.698413e-01 -1.000000e+00 0.000000e+00
-2.380952e-01 -1.000000e+00 0.000000e+00
-2.063492e-01 -1.000000e+00 0.000000e+00
-1.746032e-01 -1.000000e+00 0.000000e+00
-1.428571e-01 -1.000000e+00 0.000000e+00
-1.111111e-01 -1.000000e+00 0.000000e+00
-7.936508e-02 -1.000000e+00 0.000000e+00
-4.761905e-02 -1.000000e+00 0.000000e+00
-1.587302e-02 -1.000000e+00 0.000000e+00
1.587302e-02 -1.000000e+00 0.000000e+00
4.761905e-02 -1.000000e+00 0.000000e+00
7.936508e-02 -1.000000e+00 0.000000e+00
1.111111e-01 -1.000000e+00 0.000000e+00
1.428571e-01 -1.000000e+00 0.000000e+00
1.746032e-01 -1.000000e+00 0.000000e+00
2.063492e-01 -1.000000e+00 0.000000e+00
2.380952e-01 -1.000000e+00 0.000000e+00
2.698413e-01 -1.000000e+00 0.000000e+00
3.015873e-01 -1.000000e+00 0.000000e+00
3.333333e-01 -1.000000e+00 0.000000e+00
3.650794e-01 -1.000000e+00 0.000000e+00
3.968254e-01 -1.000000e+00 0.000000e+00
4.285714e-01 -1.000000e+00 0.000000e+00
4.603175e-01 -1.000000e+00 0.000000e+00
4.920635e-01 -1.000000e+00 0.000000e+00
5.238095e-01 -1.000000e+00 0.000000e+00
5.555556e-01 -1.000000e+00 0.000000e+00
5.873016e-01 -1.000000e+00 0.000000e+00
6.190476e-01 -1.000000e+00 0.000000e+00
6.507937e-01 -1.000000e+00 0.000000e+00
6.825397e-01 -1.000000e+00 0.000000e+00
7.142857e-01 -1.000000e+00 0.000000e+00
7.460317e-01 -1.000000e+00 0.000000e+00
7.777778e-01 -1.000000e+00 0.000000e+00
8.095238e-01 -1.000000e+00 0.000000e+00
8.412698e-01 -1.000000e+00 0.000000e+00
8.730159e-01 -1.000000e+00 0.000000e+00
9.047619e-01 -1.000000e+00 0.000000e+00
9.365079e-01 -1.000000e+00 0.000000e+00
9.682540e-01 -1.000000e+00 0.000000e+00
1.000000e+00 -1.000000e+00 0.000000e+00
-1.000000e+00 -9.682540e-01 0.000000e+00
-9.682540e-01 -9.682540e-01 0.000000e+00
-9.365079e-01 -9.682540e-01 0.000000e+00
-9.047619e-01 -9.682540e-01 0.000000e+00
-8.730159e-01 -9.682540e-01 0.000000e+00
-8.412698e-01 -9.682540e-01 0.000000e+00
-8.095238e-01 -9.682540e-01 0.000000e+00
-7.777778e-01 -9.682540e-01 0.000000e+00
-7.460317e-01 -9.682540e-01 0.000000e+00
-7.142857e-01 -9.682540e-01 0.000000e+00
-6.825397e-01 -9.682540e-01 0.000000e+00
-6.507937e-01 -9.682540e-01 0.000000e+00
-6.190476e-01 -9.682540e-01 0.000000e+00
-5.873016e-01 -9.682540e-01 0.000000e+00
-5.555556e-01 -9.682540e-01 0.000000e+00
-5.238095e-01 -9.682540e-01 0.000000e+00
-4.920635e-01 -9.682540e-01 0.000000e+00
-4.603175e-01 -9.682540e-01 0.000000e+00
-4.285714e-01 -9.682540e-01 0.000000e+00
-3.968254e-01 -9.682540e-01 0.000000e+00
-3.650794e-01 -9.682540e-01 0.000000e+00
-3.333333e-01 -9.682540e-01 0.000000e+00
-3.015873e-01 -9.682540e-01 0.000000e+00
-2.698413e-01 -9.682540e-01 0.000000e+00
-2.380952e-01 -9.682540e-01 0.000000e+00
-2.063492e-01 -9.682540e-01 0.000000e+00
-1.746032e-01 -9.682540e-01 0.000000e+00
-1.428571e-01 -9.682540e-01 0.000000e+00
-1.111111e-01 -9.682540e-01 0.000000e+00
-7.936508e-02 -9.682540e-01 0.000000e+00
-4.761905e-02 -9.682540e-01 0.000000e+00
-1.587302e-02 -9.682540e-01 0.000000e+00
1.587302e-02 -9.682540e-01 0.000000e+00
4.761905e-02 -9.682540e-01 0.000000e+00
7.936508e-02 -9.682540e-01 0.000000e+00
1.111111e-01 -9.682540e-01 0.000000e+00
1.428571e-01 -9.682540e-01 0.000000e+00
1.746032e-01 -9.682540e-01 0.000000e+00
2.063492e-01 -9.682540e-01 0.000000e+00
2.380952e-01 -9.682540e-01 0.000000e+00
2.698413e-01 -9.682540e-01 0.000000e+00
3.015873e-01 -9.682540e-01 0.000000e+00
3.333333e-01 -9.682540e-01 0.000000e+00
3.650794e-01 -9.682540e-01 0.000000e+00
3.968254e-01 -9.682540e-01 0.000000e+00
4.285714e-01 -9.682540e-01 0.000000e+00
4.603175e-01 -9.682540e-01 0.000000e+00
4.920635e-01 -9.682540e-01 0.000000e+00
5.238095e-01 -9.682540e-01 0.000000e+00
5.555556e-01 -9.682540e-01 0.000000e+00
5.873016e-01 -9.682540e-01 0.000000e+00
6.190476e-01 -9.682540e-01 0.000000e+00
6.507937e-01 -9.682540e-01 0.000000e+00
6.825397e-01 -9.682540e-01 0.000000e+00
7.142857e-01 -9.682540e-01 0.000000e+00
7.460317e-01 -9.682540e-01 0.000000e+00
7.777778e-01 -9.682540e-01 0.000000e+00
8.095238e-01 -9.682540e-01 0.000000e+00
8.412698e-01 -9.682540e-01 0.000000e+00
8.730159e-01 -9.682540e-01 0.000000e+00
9.047619e-01 -9.682540e-01 0.000000e+00
9.365079e-01 -9.682540e-01 0.000000e+00
9.682540e-01 -9.682540e-01 0.000000e+00
1.000000e+00 -9.682540e-01 0.000000e+00
-1.000000e+00 -9.365079e-01 0.000000e+00
-9.682540e-01 -9.365079e-01 0.000000e+00
-9.365079e-01 -9.365079e-01 0.000000e+00
-9.047619e-01 -9.365079e-01 0.000000e+00
-8.730159e-01 -9.365079e-01 0.000000e+00
-8.412698e-01 -9.365079e-01 0.000000e+00
-8.095238e-01 -9.365079e-01 0.000000e+00
-7.777778e-01 -9.365079e-01 0.000000e+00
-7.460317e-01 -9.365079e-01 0.000000e+00
-7.142857e-01 -9.365079e-01 0.000000e+00
-6.825397e-01 -9.365079e-01 0.000000e+00
-6.507937e-01 -9.365079e-01 0.000000e+00
-6.190476e-01 -9.365079e-01 0.000000e+00
-5.873016e-01 -9.365079e-01 0.000000e+00
-5.555556e-01 -9.365079e-01 0.000000e+00
-5.238095e-01 -9.365079e-01 0.000000e+00
-4.920635e-01 -9.365079e-01 0.000000e+00
-4.603175e-01 -9.365079e-01 0.000000e+00
-4.285714e-01 -9.365079e-01 0.000000e+00
-3.968254e-01 -9.365079e-01 0.000000e+00
-3.650794e-01 -9.365079e-01 0.000000e+00
-3.333333e-01 -9.365079e-01 0.000000e+00
-3.015873e-01 -9.365079e-01 0.000000e+00
-2.698413e-01 -9.365079e-01 0.000000e+00
-2.380952e-01 -9.365079e-01 0.000000e+00
-2.063492e-01 -9.365079e-01 0.000000e+00
-1.746032e-01 -9.365079e-01 0.000000e+00
-1.428571e-01 -9.365079e-01 0.000000e+00
-1.111111e-01 -9.365079e-01 0.000000e+00
-7.936508e-02 -9.365079e-01 0.000000e+00
-4.761905e-02 -9.365079e-01 0.000000e+00
-1.587302e-02 -9.365079e-01 0.000000e+00
1.587302e-02 -9.365079e-01 0.000000e+00
4.761905e-02 -9.365079e-01 0.000000e+00
7.936508e-02 -9.365079e-01 0.000000e+00
1.111111e-01 -9.365079e-01 0.000000e+00
1.428571e-01 -9.365079e-01 0.000000e+00
1.746032e-01 -9.365079e-01 0.000000e+00
2.063492e-01 -9.365079e-01 0.000000e+00
2.380952e-01 -9.365079e-01 0.000000e+00
2.698413e-01 -9.365079e-01 0.000000e+00
3.015873e-01 -9.365079e-01 0.000000e+00
3.333333e-01 -9.365079e-01 0.000000e+00
3.650794e-01 -9.365079e-01 0.000000e+00
3.968254e-01 -9.365079e-01 0.000000e+00
4.285714e-01 -9.365079e-01 0.000000e+00
4.603175e-01 -9.365079e-01 0.000000e+00
4.920635e-01 -9.365079e-01 0.000000e+00
5.238095e-01 -9.365079e-01 0.000000e+00
5.555556e-01 -9.365079e-01 0.000000e+00
5.873016e-01 -9.365079e-01 0.000000e+00
6.190476e-01 -9.365079e-01 0.000000e+00
6.507937e-01 -9.365079e-01 0.000000e+00
6.825397e-01 -9.365079e-01 0.000000e+00
7.142857e-01 -9.365079e-01 0.000000e+00
7.460317e-01 -9.365079e-01 0.000000e+00
7.777778e-01 -9.365079e-01 0.000000e+00
8.095238e-01 -9.365079e-01 0.000000e+00
8.412698e-01 -9.365079e-01 0.000000e+00
8.730159e-01 -9.365079e-01 0.000000e+00
9.047619e-01 -9.365079e-01 0.000000e+00
9.365079e-01 -9.365079e-01 0.000000e+00
9.682540e-01 -9.365079e-01 0.000000e+00
1.000000e+00 -9.365079e-01 0.000000e+00
-1.000000e+00 -9.047619e-01 0.000000e+00
-9.682540e-01 -9.047619e-01 0.000000e+00
-9.365079e-01 -9.047619e-01 0.000000e+00
-9.047619e-01 -9.047619e-01 0.000000e+00
-8.730159e-01 -9.047619e-01 0.000000e+00
-8.412698e-01 -9.047619e-01 0.000000e+00
-8.095238e-01 -9.047619e-01 0.000000e+00
-7.777778e-01 -9.047619e-01 0.000000e+00
-7.460317e-01 -9.047619e-01 0.000000e+00
-7.142857e-01 -9.047619e-01 0.000000e+00
-6.825397e-01 -9.047619e-01 0.000000e+00
-6.507937e-01 -9.047619e-01 0.000000e+00
-6.190476e-01 -9.047619e-01 0.000000e+00
-5.873016e-01 -9.047619e-01 0.000000e+00
-5.555556e-01 -9.047619e-01 0.000000e+00
-5.238095e-01 -9.047619e-01 0.000000e+00
-4.920635e-01 -9.047619e-01 0.000000e+00
-4.603175e-01 -9.047619e-01 0.000000e+00
-4.285714e-01 -9.047619e-01 0.000000e+00
-3.968254e-01 -9.047619e-01 0.000000e+00
-3.650794e-01 -9.047619e-01 0.000000e+00
-3.333333e-01 -9.047619e-01 0.000000e+00
-3.015873e-01 -9.047619e-01 0.000000e+00
-2.698413e-01 -9.047619e-01 0.000000e+00
-2.380952e-01 -9.047619e-01 0.000000e+00
-2.063492e-01 -9.047619e-01 0.000000e+00
-1.746032e-01 -9.047619e-01 0.000000e+00
-1.428571e-01 -9.047619e-01 0.000000e+00
-1.111111e-01 -9.047619e-01 0.000000e+00
-7.936508e-02 -9.047619e-01 0.000000e+00
-4.761905e-02 -9.047619e-01 0.000000e+00
-1.587302e-02 -9.047619e-01 0.000000e+00
1.587302e-02 -9.047619e-01 0.000000e+00
4.761905e-02 -9.047619e-01 0.000000e+00
7.936508e-02 -9.047619e-01 0.000000e+00
1.111111e-01 -9.047619e-01 0.000000e+00
1.428571e-01 -9.047619e-01 0.000000e+00
1.746032e-01 -9.047619e-01 0.000000e+00
2.063492e-01 -9.047619e-01 0.000000e+00
2.380952e-01 -9.047619e-01 0.000000e+00
2.698413e-01 -9.047619e-01 0.000000e+00
3.015873e-01 -9.047619e-01 0.000000e+00
3.333333e-01 -9.047619e-01 0.000000e+00
3.650794e-01 -9.047619e-01 0.000000e+00
3.968254e-01 -9.047619e-01 0.000000e+00
4.285714e-01 -9.047619e-01 0.000000e+00
4.603175e-01 -9.047619e-01 0.000000e+00
4.920635e-01 -9.047619e-01 0.000000e+00
5.238095e-01 -9.047619e-01 0.000000e+00
5.555556e-01 -9.047619e-01 0.000000e+00
5.873016e-01 -9.047619e-01 0.000000e+00
6.190476e-01 -9.047619e-01 0.000000e+00
[...]
POINT_DATA 4096 
SCALARS concentration double 1 
LOOKUP_TABLE default 
1.446090e+00 
1.422107e+00 
1.398331e+00 
1.374812e+00 
1.351571e+00 
1.328620e+00 
1.305975e+00 
1.283649e+00 
1.261657e+00 
1.240015e+00 
1.218740e+00 
1.197847e+00 
1.177355e+00 
1.157282e+00 
1.137648e+00 
1.118473e+00 
1.099777e+00 
1.081583e+00 
1.063913e+00 
1.046791e+00 
1.030241e+00 
1.014289e+00 
9.989611e-01 
9.842834e-01 
9.702837e-01 
9.569898e-01 
9.444301e-01 
9.326330e-01 
9.216273e-01 
9.114414e-01 
9.021038e-01 
8.936426e-01 
8.860852e-01 
8.794550e-01 
8.737706e-01 
8.690506e-01 
8.653143e-01 
8.625818e-01 
8.608815e-01 
8.603292e-01 
8.612812e-01 
8.636547e-01 
8.673021e-01 
8.721013e-01 
8.779672e-01 
8.848407e-01 
8.926773e-01 
9.014399e-01 
9.110948e-01 
9.216100e-01 
9.329544e-01 
9.450974e-01 
9.580091e-01 
9.716598e-01 
9.860204e-01 
1.001062e+00 
1.016756e+00 
1.033075e+00 
1.049992e+00 
1.067482e+00 
1.085520e+00 
1.104083e+00 
1.123146e+00 
1.142690e+00 
1.425436e+00 
1.401149e+00 
1.377063e+00 
1.353230e+00 
1.329667e+00 
1.306391e+00 
1.283414e+00 
1.260752e+00 
1.238419e+00 
1.216431e+00 
1.194805e+00 
1.173558e+00 
1.152708e+00 
1.132273e+00 
1.112275e+00 
1.092732e+00 
1.073668e+00 
1.055105e+00 
1.037066e+00 
1.019576e+00 
1.002661e+00 
9.863465e-01 
9.706610e-01 
9.556324e-01 
9.412895e-01 
9.276620e-01 
9.147799e-01 
9.026735e-01 
8.913734e-01 
8.809102e-01 
8.713144e-01 
8.626164e-01 
8.548457e-01 
8.480275e-01 
8.421817e-01 
8.373288e-01 
8.334897e-01 
8.306862e-01 
8.289494e-01 
8.284147e-01 
8.294552e-01 
8.319560e-01 
8.357552e-01 
8.407267e-01 
8.467856e-01 
8.538736e-01 
8.619459e-01 
8.709643e-01 
8.808936e-01 
8.916999e-01 
9.033505e-01 
9.158128e-01 
9.290548e-01 
9.430454e-01 
9.577536e-01 
9.731492e-01 
9.892017e-01 
1.005882e+00 
1.023164e+00 
1.041020e+00 
1.059424e+00 
1.078353e+00 
1.097781e+00 
1.117688e+00 
1.405155e+00 
1.380556e+00 
1.356156e+00 
1.332004e+00 
1.308118e+00 
1.284512e+00 
1.261199e+00 
1.238196e+00 
1.215516e+00 
1.193176e+00 
1.171193e+00 
1.149584e+00 
1.128367e+00 
1.107563e+00 
1.087190e+00 
1.067271e+00 
1.047828e+00 
1.028884e+00 
1.010464e+00 
9.925931e-01 
9.752991e-01 
9.586093e-01 
9.425525e-01 
9.271584e-01 
9.124576e-01 
8.984814e-01 
8.852618e-01 
8.728310e-01 
8.612218e-01 
8.504670e-01 
8.405993e-01 
8.316512e-01 
8.236543e-01 
8.166357e-01 
8.106175e-01 
8.056222e-01 
8.016727e-01 
7.987927e-01 
7.970160e-01 
7.965007e-01 
7.976342e-01 
8.002668e-01 
8.042222e-01 
8.093719e-01 
8.156317e-01 
8.229436e-01 
8.312622e-01 
8.405481e-01 
8.507642e-01 
8.618747e-01 
8.738445e-01 
8.866391e-01 
9.002245e-01 
9.145676e-01 
9.296357e-01 
9.453971e-01 
9.618197e-01 
9.788734e-01 
9.965296e-01 
1.014761e+00 
1.033540e+00 
1.052842e+00 
1.072642e+00 
1.092917e+00 
1.385255e+00 
1.360342e+00 
1.335626e+00 
1.311152e+00 
1.286938e+00 
1.262998e+00 
1.239346e+00 
1.215997e+00 
1.192965e+00 
1.170267e+00 
1.147920e+00 
1.125942e+00 
1.104351e+00 
1.083167e+00 
1.062411e+00 
1.042105e+00 
1.022271e+00 
1.002935e+00 
9.841222e-01 
9.658584e-01 
9.481721e-01 
9.310924e-01 
9.146495e-01 
8.988748e-01 
8.838005e-01 
8.694596e-01 
8.558863e-01 
8.431150e-01 
8.311808e-01 
8.201189e-01 
8.099642e-01 
8.007516e-01 
7.925151e-01 
7.852839e-01 
7.790826e-01 
7.739362e-01 
7.698695e-01 
7.669082e-01 
7.650891e-01 
7.645964e-01 
7.658284e-01 
7.685975e-01 
7.727149e-01 
7.780503e-01 
7.845205e-01 
7.920676e-01 
8.006455e-01 
8.102129e-01 
8.207305e-01 
8.321603e-01 
8.444648e-01 
8.576073e-01 
8.715515e-01 
8.862623e-01 
9.017051e-01 
9.178464e-01 
9.346527e-01 
9.520925e-01 
9.701356e-01 
9.887534e-01 
1.007918e+00 
1.027604e+00 
1.047785e+00 
1.068437e+00 
1.365752e+00 
1.340523e+00 
1.315488e+00 
1.290690e+00 
1.266145e+00 
1.241867e+00 
1.217872e+00 
1.194172e+00 
1.170783e+00 
1.147721e+00 
1.125004e+00 
1.102649e+00 
1.080676e+00 
1.059104e+00 
1.037955e+00 
1.017252e+00 
9.970177e-01 
9.772779e-01 
9.580589e-01 
9.393886e-01 
9.212960e-01 
9.038117e-01 
8.869674e-01 
8.707960e-01 
8.553314e-01 
8.406090e-01 
8.266648e-01 
8.135358e-01 
8.012596e-01 
7.898736e-01 
7.794154e-01 
7.699225e-01 
7.614316e-01 
7.539745e-01 
7.475786e-01 
7.422714e-01 
7.380801e-01 
7.350325e-01 
7.331685e-01 
7.327020e-01 
7.340382e-01 
7.369490e-01 
7.412347e-01 
7.467644e-01 
7.534558e-01 
7.612510e-01 
7.701024e-01 
7.799665e-01 
7.908018e-01 
8.025675e-01 
8.152235e-01 
8.287306e-01 
8.430502e-01 
8.581449e-01 
8.739781e-01 
8.905146e-01 
9.077192e-01 
9.255588e-01 
9.440021e-01 
9.630190e-01 
9.825809e-01 
1.002661e+00 
1.023232e+00 
1.044271e+00 
1.346662e+00 
1.321117e+00 
1.295761e+00 
1.270635e+00 
1.245756e+00 
1.221138e+00 
1.196794e+00 
1.172739e+00 
1.148988e+00 
1.125557e+00 
1.102463e+00 
1.079725e+00 
1.057361e+00 
1.035393e+00 
1.013842e+00 
9.927317e-01 
9.720857e-01 
9.519303e-01 
9.322929e-01 
9.132024e-01 
8.946892e-01 
8.767850e-01 
8.595231e-01 
8.429382e-01 
8.270660e-01 
8.119440e-01 
7.976108e-01 
7.841057e-01 
7.714688e-01 
7.597402e-01 
7.489605e-01 
7.391700e-01 
7.304086e-01 
7.227112e-01 
7.161080e-01 
7.106295e-01 
7.063056e-01 
7.031662e-01 
7.012545e-01 
7.008180e-01 
7.022636e-01 
7.053214e-01 
7.097824e-01 
7.155160e-01 
7.224407e-01 
7.304981e-01 
7.396386e-01 
7.498162e-01 
7.609866e-01 
7.731059e-01 
7.861314e-01 
8.000210e-01 
8.147337e-01 
8.302294e-01 
8.464697e-01 
8.634172e-01 
8.810354e-01 
8.992894e-01 
9.181462e-01 
9.375749e-01 
9.575456e-01 
9.780303e-01 
9.990024e-01 
1.020437e+00 
1.328001e+00 
1.302139e+00 
1.276461e+00 
1.251006e+00 
1.225790e+00 
1.200828e+00 
1.176132e+00 
1.151717e+00 
1.127598e+00 
1.103792e+00 
1.080316e+00 
1.057187e+00 
1.034426e+00 
1.012053e+00 
9.900911e-01 
9.685631e-01 
9.474944e-01 
9.269116e-01 
9.068431e-01 
8.873187e-01 
8.683700e-01 
8.500301e-01 
8.323340e-01 
8.153179e-01 
7.990200e-01 
7.834797e-01 
7.687380e-01 
7.548369e-01 
7.418192e-01 
7.297281e-01 
7.186075e-01 
7.085010e-01 
6.994517e-01 
6.914980e-01 
6.846736e-01 
6.790124e-01 
6.745469e-01 
6.713099e-01 
6.693474e-01 
6.689447e-01 
6.705048e-01 
6.737151e-01 
6.783594e-01 
6.843077e-01 
6.914793e-01 
6.998144e-01 
7.092611e-01 
7.197705e-01 
7.312947e-01 
7.437869e-01 
7.572010e-01 
7.714921e-01 
7.866164e-01 
8.025313e-01 
8.191960e-01 
8.365712e-01 
8.546187e-01 
8.733018e-01 
8.925863e-01 
9.124396e-01 
9.328310e-01 
9.537317e-01 
9.751144e-01 
9.969530e-01 
1.309777e+00 
1.283595e+00 
1.257594e+00 
1.231808e+00 
1.206254e+00 
1.180945e+00 
1.155893e+00 
1.131115e+00 
1.106624e+00 
1.082438e+00 
1.058573e+00 
1.035048e+00 
1.011882e+00 
9.890966e-01 
9.667146e-01 
9.447599e-01 
9.232581e-01 
9.022365e-01 
8.817243e-01 
8.617525e-01 
8.423536e-01 
8.235623e-01 
8.054150e-01 
7.879500e-01 
7.712075e-01 
7.552294e-01 
7.400590e-01 
7.257410e-01 
7.123215e-01 
6.998471e-01 
6.883651e-01 
6.779230e-01 
6.685673e-01 
6.603401e-01 
6.532795e-01 
6.474232e-01 
6.428069e-01 
6.394660e-01 
6.374497e-01 
6.370849e-01 
6.387642e-01 
6.421332e-01 
6.469699e-01 
6.531455e-01 
6.605793e-01 
6.692097e-01 
6.789817e-01 
6.898427e-01 
7.017414e-01 
7.146273e-01 
7.284509e-01 
7.431639e-01 
7.587196e-01 
7.750729e-01 
7.921805e-01 
8.100008e-01 
8.284939e-01 
8.476216e-01 
8.673479e-01 
8.876390e-01 
9.084633e-01 
9.297911e-01 
9.515944e-01 
9.738467e-01 
1.291982e+00 
1.265486e+00 
1.239163e+00 
1.213047e+00 
1.187154e+00 
1.161497e+00 
1.136090e+00 
1.110946e+00 
1.086081e+00 
1.061511e+00 
1.037253e+00 
1.013326e+00 
9.897504e-01 
9.665465e-01 
9.437376e-01 
9.213480e-01 
8.994038e-01 
8.779330e-01 
8.569655e-01 
8.365332e-01 
8.166699e-01 
7.974114e-01 
7.787959e-01 
7.608637e-01 
7.436572e-01 
7.272205e-01 
7.115998e-01 
6.968427e-01 
6.829985e-01 
6.701179e-01 
6.582520e-01 
6.474525e-01 
6.377700e-01 
6.292512e-01 
6.219388e-01 
6.158743e-01 
6.110974e-01 
6.076463e-01 
6.055731e-01 
6.052481e-01 
6.070469e-01 
6.105802e-01 
6.156198e-01 
6.220370e-01 
6.297505e-01 
6.386958e-01 
6.488144e-01 
6.600497e-01 
6.723460e-01 
6.856488e-01 
6.999049e-01 
7.150626e-01 
7.310718e-01 
7.478847e-01 
7.654554e-01 
7.837400e-01 
8.026968e-01 
8.222858e-01 
8.424693e-01 
8.632127e-01 
8.844834e-01 
9.062508e-01 
9.284862e-01 
9.511627e-01 
1.274706e+00 
1.247890e+00 
1.221245e+00 
1.194798e+00 
1.168566e+00 
1.142560e+00 
1.116794e+00 
1.091282e+00 
1.066038e+00 
1.041080e+00 
1.016424e+00 
9.920886e-01 
9.680945e-01 
9.444628e-01 
9.212168e-01 
8.983810e-01 
8.759820e-01 
8.540483e-01 
8.326105e-01 
8.117013e-01 
7.913557e-01 
7.716108e-01 
7.525065e-01 
7.340851e-01 
7.163910e-01 
6.994708e-01 
6.833736e-01 
6.681505e-01 
6.538544e-01 
6.405401e-01 
6.282632e-01 
6.170803e-01 
6.070472e-01 
5.982156e-01 
5.906327e-01 
5.843450e-01 
5.793960e-01 
5.758272e-01 
5.736939e-01 
5.734168e-01 
5.753474e-01 
5.790562e-01 
5.843121e-01 
5.909877e-01 
5.990004e-01 
6.082825e-01 
6.187710e-01 
6.304046e-01 
6.431230e-01 
6.568674e-01 
6.715802e-01 
6.872061e-01 
7.036916e-01 
7.209858e-01 
7.390401e-01 
7.578085e-01 
7.772469e-01 
7.973136e-01 
8.179699e-01 
8.391800e-01 
8.609104e-01 
8.831296e-01 
9.058085e-01 
9.289195e-01 
1.257936e+00 
1.230806e+00 
1.203838e+00 
1.177061e+00 
1.150488e+00 
1.124131e+00 
1.098004e+00 
1.072121e+00 
1.046496e+00 
1.021145e+00 
9.960860e-01 
9.713370e-01 
9.469183e-01 
9.228515e-01 
8.991599e-01 
8.758684e-01 
8.530040e-01 
8.305957e-01 
8.086745e-01 
7.872738e-01 
7.664295e-01 
7.461805e-01 
7.265680e-01 
7.076361e-01 
6.894315e-01 
6.720036e-01 
6.554044e-01 
6.396886e-01 
6.249132e-01 
6.111373e-01 
5.984217e-01 
5.868280e-01 
5.764179e-01 
5.672485e-01 
5.593729e-01 
5.528430e-01 
5.477071e-01 
5.440104e-01 
5.418112e-01 
5.415852e-01 
5.436540e-01 
5.475477e-01 
5.530334e-01 
5.599845e-01 
5.683166e-01 
5.779578e-01 
5.888400e-01 
6.008965e-01 
6.140618e-01 
6.282722e-01 
6.434656e-01 
6.595825e-01 
6.765658e-01 
6.943615e-01 
7.129181e-01 
7.321873e-01 
7.521229e-01 
7.726815e-01 
7.938233e-01 
8.155113e-01 
8.377110e-01 
8.603904e-01 
8.835196e-01 
9.070709e-01 
1.241686e+00 
1.214242e+00 
1.186954e+00 
1.159847e+00 
1.132934e+00 
1.106227e+00 
1.079739e+00 
1.053484e+00 
1.027475e+00 
1.001730e+00 
9.762647e-01 
9.510980e-01 
9.262498e-01 
9.017416e-01 
8.775970e-01 
8.538409e-01 
8.305008e-01 
8.076060e-01 
7.851881e-01 
7.632811e-01 
7.419220e-01 
7.211507e-01 
7.010100e-01 
6.815457e-01 
6.628068e-01 
6.448456e-01 
6.277172e-01 
6.114802e-01 
5.961960e-01 
5.819285e-01 
5.687439e-01 
5.567099e-01 
5.458941e-01 
5.363606e-01 
5.281689e-01 
5.213774e-01 
5.160395e-01 
5.122049e-01 
5.099347e-01 
5.097639e-01 
5.119787e-01 
5.160688e-01 
5.218004e-01 
5.290475e-01 
5.377227e-01 
5.477489e-01 
5.590521e-01 
5.715594e-01 
5.851996e-01 
5.999034e-01 
6.156041e-01 
6.322374e-01 
6.497427e-01 
6.680622e-01 
6.871419e-01 
7.069308e-01 
7.273808e-01 
7.484468e-01 
7.700878e-01 
7.922658e-01 
8.149456e-01 
8.380943e-01 
8.616818e-01 
8.856798e-01 
1.225973e+00 
1.198220e+00 
1.170613e+00 
1.143178e+00 
1.115927e+00 
1.088871e+00 
1.062022e+00 
1.035395e+00 
1.009003e+00 
9.828617e-01 
9.569881e-01 
9.314004e-01 
9.061185e-01 
8.811637e-01 
8.565594e-01 
8.323308e-01 
8.085053e-01 
7.851127e-01 
7.621849e-01 
7.397569e-01 
7.178665e-01 
6.965545e-01 
6.758652e-01 
6.558459e-01 
6.365482e-01 
6.180268e-01 
6.003407e-01 
5.835522e-01 
5.677274e-01 
5.529355e-01 
5.392488e-01 
5.267415e-01 
5.154887e-01 
5.055615e-01 
4.970274e-01 
4.899521e-01 
4.843956e-01 
4.804118e-01 
4.780651e-01 
4.779532e-01 
4.803232e-01 
4.846233e-01 
4.906199e-01 
4.981866e-01 
5.072318e-01 
5.176721e-01 
5.294265e-01 
5.424153e-01 
5.565610e-01 
5.717881e-01 
5.880246e-01 
6.052016e-01 
6.232542e-01 
6.421211e-01 
6.617454e-01 
6.820736e-01 
7.030555e-01 
7.246447e-01 
7.467989e-01 
7.694791e-01 
7.926493e-01 
8.162764e-01 
8.403297e-01 
8.647809e-01 
1.210819e+00 
1.182759e+00 
1.154838e+00 
1.127078e+00 
1.099491e+00 
1.072087e+00 
1.044880e+00 
1.017882e+00 
9.911061e-01 
9.645684e-01 
9.382852e-01 
9.122744e-01 
8.865555e-01 
8.611498e-01 
8.360802e-01 
8.113720e-01 
7.870526e-01 
7.631517e-01 
7.397019e-01 
7.167385e-01 
6.943002e-01 
6.724290e-01 
6.511701e-01 
6.305729e-01 
6.106908e-01 
5.915815e-01 
5.733074e-01 
5.559350e-01 
5.395354e-01 
5.241836e-01 
5.099585e-01 
4.969417e-01 
4.852163e-01 
4.748623e-01 
4.659562e-01 
4.585721e-01 
4.527777e-01 
4.486322e-01 
4.462026e-01 
4.461529e-01 
4.486887e-01 
4.532147e-01 
4.594982e-01 
4.674116e-01 
4.768573e-01 
4.877443e-01 
4.999837e-01 
5.134880e-01 
5.281723e-01 
5.439550e-01 
5.607579e-01 
5.785072e-01 
5.971336e-01 
6.165723e-01 
6.367633e-01 
6.576507e-01 
6.791822e-01 
7.013101e-01 
7.239910e-01 
7.471850e-01 
7.708557e-01 
7.949695e-01 
8.194954e-01 
8.444052e-01 
1.196243e+00 
1.167881e+00 
1.139649e+00 
1.111568e+00 
1.083648e+00 
1.055901e+00 
1.028337e+00 
1.000969e+00 
9.738118e-01 
9.468784e-01 
9.201856e-01 
8.937507e-01 
8.675929e-01 
8.417329e-01 
8.161937e-01 
7.910000e-01 
7.661790e-01 
7.417606e-01 
7.177773e-01 
6.942651e-01 
6.712631e-01 
6.488142e-01 
6.269649e-01 
6.057662e-01 
5.852736e-01 
5.655476e-01 
5.466539e-01 
5.286635e-01 
5.116526e-01 
4.957024e-01 
4.808991e-01 
4.673327e-01 
4.550953e-01 
4.442771e-01 
4.349651e-01 
4.272439e-01 
4.211896e-01 
4.168681e-01 
4.143484e-01 
4.143627e-01 
4.170756e-01 
4.218450e-01 
4.284406e-01 
4.367317e-01 
4.466128e-01 
4.579837e-01 
4.707459e-01 
4.848032e-01 
5.000628e-01 
5.164357e-01 
5.338377e-01 
5.521896e-01 
5.714176e-01 
5.914532e-01 
6.122334e-01 
6.336998e-01 
6.557985e-01 
6.784803e-01 
7.017010e-01 
7.254199e-01 
7.496001e-01 
7.742079e-01 
7.992124e-01 
8.245853e-01 
1.182260e+00 
1.153600e+00 
1.125062e+00 
1.096664e+00 
1.068417e+00 
1.040329e+00 
1.012413e+00 
9.846794e-01 
9.571422e-01 
9.298152e-01 
9.027139e-01 
8.758552e-01 
8.492579e-01 
8.229421e-01 
7.969301e-01 
7.712464e-01 
7.459179e-01 
7.209742e-01 
6.964477e-01 
6.723745e-01 
6.487943e-01 
6.257504e-01 
6.032907e-01 
5.814674e-01 
5.603382e-01 
5.399662e-01 
5.204205e-01 
5.017764e-01 
4.841156e-01 
4.675259e-01 
4.521014e-01 
4.379412e-01 
4.251479e-01 
4.138232e-01 
4.040670e-01 
3.959760e-01 
3.896372e-01 
3.851233e-01 
3.825053e-01 
3.825835e-01 
3.854852e-01 
3.905177e-01 
3.974544e-01 
4.061590e-01 
4.165157e-01 
4.284128e-01 
4.417407e-01 
4.563932e-01 
4.722683e-01 
4.892694e-01 
5.073055e-01 
5.262920e-01 
5.461505e-01 
5.668090e-01 
5.882011e-01 
6.102666e-01 
6.329497e-01 
6.562002e-01 
6.799729e-01 
7.042269e-01 
7.289249e-01 
7.540332e-01 
7.795211e-01 
8.053605e-01 
1.168858e+00 
1.139910e+00 
1.111074e+00 
1.082366e+00 
1.053796e+00 
1.025375e+00 
9.971114e-01 
9.690178e-01 
9.411062e-01 
9.133901e-01 
8.858844e-01 
8.586053e-01 
8.315707e-01 
8.048004e-01 
7.783160e-01 
7.521412e-01 
7.263025e-01 
7.008289e-01 
6.757527e-01 
6.511099e-01 
6.269400e-01 
6.032870e-01 
5.801992e-01 
5.577304e-01 
5.359398e-01 
5.148932e-01 
4.946628e-01 
4.753284e-01 
4.569770e-01 
4.397036e-01 
4.236108e-01 
4.088081e-01 
3.954098e-01 
3.835313e-01 
3.732874e-01 
3.647894e-01 
3.581371e-01 
3.534120e-01 
3.506871e-01 
3.508199e-01 
3.539131e-01 
3.592297e-01 
3.665401e-01 
3.756990e-01 
3.865775e-01 
3.990497e-01 
4.129930e-01 
4.282892e-01 
4.448262e-01 
4.624987e-01 
4.812089e-01 
5.008662e-01 
5.213877e-01 
5.426976e-01 
5.647270e-01 
5.874132e-01 
6.106993e-01 
6.345342e-01 
6.588723e-01 
6.836722e-01 
7.088970e-01 
7.345130e-01 
7.604898e-01 
7.867998e-01 
1.156135e+00 
1.126902e+00 
1.097773e+00 
1.068761e+00 
1.039876e+00 
1.011127e+00 
9.825227e-01 
9.540741e-01 
9.257930e-01 
8.976920e-01 
8.697852e-01 
8.420882e-01 
8.146180e-01 
7.873935e-01 
7.604356e-01 
7.337672e-01 
7.074141e-01 
6.814047e-01 
6.557708e-01 
6.305476e-01 
6.057745e-01 
5.814954e-01 
5.577590e-01 
5.346198e-01 
5.121389e-01 
4.903840e-01 
4.694306e-01 
4.493627e-01 
4.302731e-01 
4.122641e-01 
3.954477e-01 
3.799449e-01 
3.658841e-01 
3.533963e-01 
3.426136e-01 
3.336651e-01 
3.266663e-01 
3.217089e-01 
3.188672e-01 
3.190645e-01 
3.223732e-01 
3.280045e-01 
3.357294e-01 
3.453917e-01 
3.568457e-01 
3.699483e-01 
3.845609e-01 
4.005521e-01 
4.177984e-01 
4.361856e-01 
4.556085e-01 
4.759707e-01 
4.971849e-01 
5.191721e-01 
5.418610e-01 
5.651868e-01 
5.890918e-01 
6.135244e-01 
6.384388e-01 
6.637939e-01 
6.895527e-01 
7.156820e-01 
7.421521e-01 
7.689359e-01 
1.144083e+00 
1.114577e+00 
1.085164e+00 
1.055858e+00 
1.026666e+00 
9.975970e-01 
9.686597e-01 
9.398639e-01 
9.112204e-01 
8.827413e-01 
8.544397e-01 
8.263302e-01 
7.984289e-01 
7.707537e-01 
7.433245e-01 
7.161632e-01 
6.892947e-01 
6.627462e-01 
6.365489e-01 
6.107372e-01 
5.853498e-01 
5.604302e-01 
5.360273e-01 
5.121959e-01 
4.889981e-01 
4.665034e-01 
4.447902e-01 
4.239465e-01 
4.040707e-01 
3.852726e-01 
3.676740e-01 
3.514084e-01 
3.366196e-01 
3.234573e-01 
3.120744e-01 
3.026220e-01 
2.952352e-01 
2.900184e-01 
2.870473e-01 
2.873073e-01 
2.908466e-01 
2.968215e-01 
3.050048e-01 
3.152249e-01 
3.273143e-01 
3.411084e-01 
3.564499e-01 
3.731920e-01 
3.911987e-01 
4.103460e-01 
4.305209e-01 
4.516218e-01 
4.735571e-01 
4.962449e-01 
5.196118e-01 
5.435919e-01 
5.681269e-01 
5.931652e-01 
6.186612e-01 
6.445740e-01 
6.708672e-01 
6.975084e-01 
7.244686e-01 
7.517215e-01 
1.132717e+00 
1.102946e+00 
1.073260e+00 
1.043669e+00 
1.014180e+00 
9.848010e-01 
9.555402e-01 
9.264067e-01 
8.974102e-01 
8.685620e-01 
8.398740e-01 
8.113599e-01 
7.830347e-01 
7.549151e-01 
7.270198e-01 
6.993697e-01 
6.719881e-01 
6.449013e-01 
6.181389e-01 
5.917345e-01 
5.657257e-01 
5.401551e-01 
5.150710e-01 
4.905283e-01 
4.665893e-01 
4.433248e-01 
4.208154e-01 
3.991527e-01 
3.784404e-01 
3.587958e-01 
3.403509e-01 
3.232528e-01 
3.076626e-01 
2.937515e-01 
2.816975e-01 
2.716787e-01 
2.638554e-01 
2.583486e-01 
2.552360e-01 
2.555580e-01 
2.593440e-01 
2.656975e-01 
2.743924e-01 
2.852352e-01 
2.980301e-01 
3.125864e-01 
3.287246e-01 
3.462802e-01 
3.651036e-01 
3.850603e-01 
4.060300e-01 
4.279054e-01 
4.505916e-01 
4.740042e-01 
4.980684e-01 
5.227176e-01 
5.478937e-01 
5.735454e-01 
5.996276e-01 
6.261002e-01 
6.529278e-01 
6.800788e-01 
7.075254e-01 
7.352426e-01 
1.122060e+00 
1.092036e+00 
1.062086e+00 
1.032221e+00 
1.002447e+00 
9.727692e-01 
9.431964e-01 
9.137364e-01 
8.843981e-01 
8.551915e-01 
8.261279e-01 
7.972194e-01 
7.684800e-01 
7.399250e-01 
7.115717e-01 
6.834396e-01 
6.555505e-01 
6.279291e-01 
6.006036e-01 
5.736058e-01 
5.469719e-01 
5.207432e-01 
4.949667e-01 
4.696965e-01 
4.449947e-01 
4.209324e-01 
3.975915e-01 
3.750665e-01 
3.534657e-01 
3.329137e-01 
3.135527e-01 
2.955441e-01 
2.790684e-01 
2.643216e-01 
2.515118e-01 
2.408513e-01 
2.325328e-01 
2.266997e-01 
2.234332e-01 
2.238184e-01 
2.278694e-01 
2.346436e-01 
2.439140e-01 
2.554566e-01 
2.690389e-01 
2.844377e-01 
3.014480e-01 
3.198851e-01 
3.395852e-01 
3.604031e-01 
3.822112e-01 
4.048975e-01 
4.283639e-01 
4.525246e-01 
4.773039e-01 
5.026355e-01 
5.284618e-01 
5.547325e-01 
5.814035e-01 
6.084360e-01 
6.357958e-01 
6.634528e-01 
6.913804e-01 
7.195551e-01 
1.112134e+00 
1.081869e+00 
1.051669e+00 
1.021542e+00 
9.914941e-01 
9.615310e-01 
9.316592e-01 
9.018858e-01 
8.722188e-01 
8.426672e-01 
8.132408e-01 
7.839509e-01 
7.548097e-01 
7.258314e-01 
6.970315e-01 
6.684279e-01 
6.400407e-01 
6.118927e-01 
5.840100e-01 
5.564226e-01 
5.291645e-01 
5.022750e-01 
4.757994e-01 
4.497901e-01 
4.243076e-01 
3.994227e-01 
3.752175e-01 
3.517879e-01 
3.292461e-01 
3.077226e-01 
2.873698e-01 
2.683640e-01 
2.509066e-01 
2.352219e-01 
2.215547e-01 
2.101602e-01 
2.012748e-01 
1.950719e-01 
1.916385e-01 
1.920922e-01 
1.964285e-01 
2.036738e-01 
2.135984e-01 
2.259331e-01 
2.403982e-01 
2.567312e-01 
2.746968e-01 
2.940889e-01 
3.147286e-01 
3.364605e-01 
3.591505e-01 
3.826829e-01 
4.069572e-01 
4.318867e-01 
4.573958e-01 
4.834194e-01 
5.099013e-01 
5.367928e-01 
5.640515e-01 
5.916403e-01 
6.195268e-01 
6.476827e-01 
6.760831e-01 
7.047059e-01 
1.102962e+00 
1.072469e+00 
1.042032e+00 
1.011657e+00 
9.813503e-01 
9.511160e-01 
9.209600e-01 
8.908883e-01 
8.609081e-01 
8.310270e-01 
8.012537e-01 
7.715980e-01 
7.420709e-01 
7.126847e-01 
6.834534e-01 