# vtk DataFile Version 2.0 
Quadtree Mesh 
ASCII 
DATASET UNSTRUCTURED_GRID 
POINTS 4096 double 
-1.000000e+00 -1.000000e+00 0.000000e+00
-9.682540e-01 -1.000000e+00 0.000000e+00
-9.365079e-01 -1.000000e+00 0.000000e+00
-9.047619e-01 -1.000000e+00 0.000000e+00
-8.730159e-01 -1.000000e+00 0.000000e+00
-8.412698e-01 -1.000000e+00 0.000000e+00
-8.095238e-01 -1.000000e+00 0.000000e+00
-7.777778e-01 -1.000000e+00 0.000000e+00
-7.460317e-01 -1.000000e+00 0.000000e+00
-7.142857e-01 -1.000000e+00 0.000000e+00
-6.825397e-01 -1.000000e+00 0.000000e+00
-6.507937e-01 -1.000000e+00 0.000000e+00
-6.190476e-01 -1.000000e+00 0.000000e+00
-5.873016e-01 -1.000000e+00 0.000000e+00
-5.555556e-01 -1.000000e+00 0.000000e+00
-5.238095e-01 -1.000000e+00 0.000000e+00
-4.920635e-01 -1.000000e+00 0.000000e+00
-4.603175e-01 -1.000000e+00 0.000000e+00
-4.285714e-01 -1.000000e+00 0.000000e+00
-3.968254e-01 -1.000000e+00 0.000000e+00
-3.650794e-01 -1.000000e+00 0.000000e+00
-3.333333e-01 -1.000000e+00 0.000000e+00
-3.015873e-01 -1.000000e+00 0.000000e+00
-2.698413e-01 -1.000000e+00 0.000000e+00
-2.380952e-01 -1.000000e+00 0.000000e+00
-2.063492e-01 -1.000000e+00 0.000000e+00
-1.746032e-01 -1.000000e+00 0.000000e+00
-1.428571e-01 -1.000000e+00 0.000000e+00
-1.111111e-01 -1.000000e+00 0.000000e+00
-7.936508e-02 -1.000000e+00 0.000000e+00
-4.761905e-02 -1.000000e+00 0.000000e+00
-1.587302e-02 -1.000000e+00 0.000000e+00
1.587302e-02 -1.000000e+00 0.000000e+00
4.761905e-02 -1.000000e+00 0.000000e+00
7.936508e-02 -1.000000e+00 0.000000e+00
1.111111e-01 -1.000000e+00 0.000000e+00
1.428571e-01 -1.000000e+00 0.000000e+00
1.746032e-01 -1.000000e+00 0.000000e+00
2.063492e-01 -1.000000e+00 0.000000e+00
2.380952e-01 -1.000000e+00 0.000000e+00
2.698413e-01 -1.000000e+00 0.000000e+00
3.015873e-01 -1.000000e+00 0.000000e+00
3.333333e-01 -1.000000e+00 0.000000e+00
3.650794e-01 -1.000000e+00 0.000000e+00
3.968254e-01 -1.000000e+00 0.000000e+00
4.285714e-01 -1.000000e+00 0.000000e+00
4.603175e-01 -1.000000e+00 0.000000e+00
4.920635e-01 -1.000000e+00 0.000000e+00
5.238095e-01 -1.000000e+00 0.000000e+00
5.555556e-01 -1.000000e+00 0.000000e+00
5.873016e-01 -1.000000e+00 0.000000e+00
6.190476e-01 -1.000000e+00 0.000000e+00
6.507937e-01 -1.000000e+00 0.000000e+00
6.825397e-01 -1.000000e+00 0.000000e+00
7.142857e-01 -1.000000e+00 0.000000e+00
7.460317e-01 -1.000000e+00 0.000000e+00
7.777778e-01 -1.000000e+00 0.000000e+00
8.095238e-01 -1.000000e+00 0.000000e+00
8.412698e-01 -1.000000e+00 0.000000e+00
8.730159e-01 -1.000000e+00 0.000000e+00
9.047619e-01 -1.000000e+00 0.000000e+00
9.365079e-01 -1.000000e+00 0.000000e+00
9.682540e-01 -1.000000e+00 0.000000e+00
1.000000e+00 -1.000000e+00 0.000000e+00
-1.000000e+00 -9.682540e-01 0.000000e+00
-9.682540e-01 -9.682540e-01 0.000000e+00
-9.365079e-01 -9.682540e-01 0.000000e+00
-9.047619e-01 -9.682540e-01 0.000000e+00
-8.730159e-01 -9.682540e-01 0.000000e+00
-8.412698e-01 -9.682540e-01 0.000000e+00
-8.095238e-01 -9.682540e-01 0.000000e+00
-7.777778e-01 -9.682540e-01 0.000000e+00
-7.460317e-01 -9.682540e-01 0.000000e+00
-7.142857e-01 -9.682540e-01 0.000000e+00
-6.825397e-01 -9.682540e-01 0.000000e+00
-6.507937e-01 -9.682540e-01 0.000000e+00
-6.190476e-01 -9.682540e-01 0.000000e+00
-5.873016e-01 -9.682540e-01 0.000000e+00
-5.555556e-01 -9.682540e-01 0.000000e+00
-5.238095e-01 -9.682540e-01 0.000000e+00
-4.920635e-01 -9.682540e-01 0.000000e+00
-4.603175e-01 -9.682540e-01 0.000000e+00
-4.285714e-01 -9.682540e-01 0.000000e+00
-3.968254e-01 -9.682540e-01 0.000000e+00
-3.650794e-01 -9.682540e-01 0.000000e+00
-3.333333e-01 -9.682540e-01 0.000000e+00
-3.015873e-01 -9.682540e-01 0.000000e+00
-2.698413e-01 -9.682540e-01 0.000000e+00
-2.380952e-01 -9.682540e-01 0.000000e+00
-2.063492e-01 -9.682540e-01 0.000000e+00
-1.746032e-01 -9.682540e-01 0.000000e+00
-1.428571e-01 -9.682540e-01 0.000000e+00
-1.111111e-01 -9.682540e-01 0.000000e+00
-7.936508e-02 -9.682540e-01 0.000000e+00
-4.761905e-02 -9.682540e-01 0.000000e+00
-1.587302e-02 -9.682540e-01 0.000000e+00
1.587302e-02 -9.682540e-01 0.000000e+00
4.761905e-02 -9.682540e-01 0.000000e+00
7.936508e-02 -9.682540e-01 0.000000e+00
1.111111e-01 -9.682540e-01 0.000000e+00
1.428571e-01 -9.682540e-01 0.000000e+00
1.746032e-01 -9.682540e-01 0.000000e+00
2.063492e-01 -9.682540e-01 0.000000e+00
2.380952e-01 -9.682540e-01 0.000000e+00
2.698413e-01 -9.682540e-01 0.000000e+00
3.015873e-01 -9.682540e-01 0.000000e+00
3.333333e-01 -9.682540e-01 0.000000e+00
3.650794e-01 -9.682540e-01 0.000000e+00
3.968254e-01 -9.682540e-01 0.000000e+00
4.285714e-01 -9.682540e-01 0.000000e+00
4.603175e-01 -9.682540e-01 0.000000e+00
4.920635e-01 -9.682540e-01 0.000000e+00
5.238095e-01 -9.682540e-01 0.000000e+00
5.555556e-01 -9.682540e-01 0.000000e+00
5.873016e-01 -9.682540e-01 0.000000e+00
6.190476e-01 -9.682540e-01 0.000000e+00
6.507937e-01 -9.682540e-01 0.000000e+00
6.825397e-01 -9.682540e-01 0.000000e+00
7.142857e-01 -9.682540e-01 0.000000e+00
7.460317e-01 -9.682540e-01 0.000000e+00
7.777778e-01 -9.682540e-01 0.000000e+00
8.095238e-01 -9.682540e-01 0.000000e+00
8.412698e-01 -9.682540e-01 0.000000e+00
8.730159e-01 -9.682540e-01 0.000000e+00
9.047619e-01 -9.682540e-01 0.000000e+00
9.365079e-01 -9.682540e-01 0.000000e+00
9.682540e-01 -9.682540e-01 0.000000e+00
1.000000e+00 -9.682540e-01 0.000000e+00
-1.000000e+00 -9.365079e-01 0.000000e+00
-9.682540e-01 -9.365079e-01 0.000000e+00
-9.365079e-01 -9.365079e-01 0.000000e+00
-9.047619e-01 -9.365079e-01 0.000000e+00
-8.730159e-01 -9.365079e-01 0.000000e+00
-8.412698e-01 -9.365079e-01 0.000000e+00
-8.095238e-01 -9.365079e-01 0.000000e+00
-7.777778e-01 -9.365079e-01 0.000000e+00
-7.460317e-01 -9.365079e-01 0.000000e+00
-7.142857e-01 -9.365079e-01 0.000000e+00
-6.825397e-01 -9.365079e-01 0.000000e+00
-6.507937e-01 -9.365079e-01 0.000000e+00
-6.190476e-01 -9.365079e-01 0.000000e+00
-5.873016e-01 -9.365079e-01 0.000000e+00
-5.555556e-01 -9.365079e-01 0.000000e+00
-5.238095e-01 -9.365079e-01 0.000000e+00
-4.920635e-01 -9.365079e-01 0.000000e+00
-4.603175e-01 -9.365079e-01 0.000000e+00
-4.285714e-01 -9.365079e-01 0.000000e+00
-3.968254e-01 -9.365079e-01 0.000000e+00
-3.650794e-01 -9.365079e-01 0.000000e+00
-3.333333e-01 -9.365079e-01 0.000000e+00
-3.015873e-01 -9.365079e-01 0.000000e+00
-2.698413e-01 -9.365079e-01 0.000000e+00
-2.380952e-01 -9.365079e-01 0.000000e+00
-2.063492e-01 -9.365079e-01 0.000000e+00
-1.746032e-01 -9.365079e-01 0.000000e+00
-1.428571e-01 -9.365079e-01 0.000000e+00
-1.111111e-01 -9.365079e-01 0.000000e+00
-7.936508e-02 -9.365079e-01 0.000000e+00
-4.761905e-02 -9.365079e-01 0.000000e+00
-1.587302e-02 -9.365079e-01 0.000000e+00
1.587302e-02 -9.365079e-01 0.000000e+00
4.761905e-02 -9.365079e-01 0.000000e+00
7.936508e-02 -9.365079e-01 0.000000e+00
1.111111e-01 -9.365079e-01 0.000000e+00
1.428571e-01 -9.365079e-01 0.000000e+00
1.746032e-01 -9.365079e-01 0.000000e+00
2.063492e-01 -9.365079e-01 0.000000e+00
2.380952e-01 -9.365079e-01 0.000000e+00
2.698413e-01 -9.365079e-01 0.000000e+00
3.015873e-01 -9.365079e-01 0.000000e+00
3.333333e-01 -9.365079e-01 0.000000e+00
3.650794e-01 -9.365079e-01 0.000000e+00
3.968254e-01 -9.365079e-01 0.000000e+00
4.285714e-01 -9.365079e-01 0.000000e+00
4.603175e-01 -9.365079e-01 0.000000e+00
4.920635e-01 -9.365079e-01 0.000000e+00
5.238095e-01 -9.365079e-01 0.000000e+00
5.555556e-01 -9.365079e-01 0.000000e+00
5.873016e-01 -9.365079e-01 0.000000e+00
6.190476e-01 -9.365079e-01 0.000000e+00
6.507937e-01 -9.365079e-01 0.000000e+00
6.825397e-01 -9.365079e-01 0.000000e+00
7.142857e-01 -9.365079e-01 0.000000e+00
7.460317e-01 -9.365079e-01 0.000000e+00
7.777778e-01 -9.365079e-01 0.000000e+00
8.095238e-01 -9.365079e-01 0.000000e+00
8.412698e-01 -9.365079e-01 0.000000e+00
8.730159e-01 -9.365079e-01 0.000000e+00
9.047619e-01 -9.365079e-01 0.000000e+00
9.365079e-01 -9.365079e-01 0.000000e+00
9.682540e-01 -9.365079e-01 0.000000e+00
1.000000e+00 -9.365079e-01 0.000000e+00
-1.000000e+00 -9.047619e-01 0.000000e+00
-9.682540e-01 -9.047619e-01 0.000000e+00
-9.365079e-01 -9.047619e-01 0.000000e+00
-9.047619e-01 -9.047619e-01 0.000000e+00
-8.730159e-01 -9.047619e-01 0.000000e+00
-8.412698e-01 -9.047619e-01 0.000000e+00
-8.095238e-01 -9.047619e-01 0.000000e+00
-7.777778e-01 -9.047619e-01 0.000000e+00
-7.460317e-01 -9.047619e-01 0.000000e+00
-7.142857e-01 -9.047619e-01 0.000000e+00
-6.825397e-01 -9.047619e-01 0.000000e+00
-6.507937e-01 -9.047619e-01 0.000000e+00
-6.190476e-01 -9.047619e-01 0.000000e+00
-5.873016e-01 -9.047619e-01 0.000000e+00
-5.555556e-01 -9.047619e-01 0.000000e+00
-5.238095e-01 -9.047619e-01 0.000000e+00
-4.920635e-01 -9.047619e-01 0.000000e+00
-4.603175e-01 -9.047619e-01 0.000000e+00
-4.285714e-01 -9.047619e-01 0.000000e+00
-3.968254e-01 -9.047619e-01 0.000000e+00
-3.650794e-01 -9.047619e-01 0.000000e+00
-3.333333e-01 -9.047619e-01 0.000000e+00
-3.015873e-01 -9.047619e-01 0.000000e+00
-2.698413e-01 -9.047619e-01 0.000000e+00
-2.380952e-01 -9.047619e-01 0.000000e+00
-2.063492e-01 -9.047619e-01 0.000000e+00
-1.746032e-01 -9.047619e-01 0.000000e+00
-1.428571e-01 -9.047619e-01 0.000000e+00
-1.111111e-01 -9.047619e-01 0.000000e+00
-7.936508e-02 -9.047619e-01 0.000000e+00
-4.761905e-02 -9.047619e-01 0.000000e+00
-1.587302e-02 -9.047619e-01 0.000000e+00
1.587302e-02 -9.047619e-01 0.000000e+00
4.761905e-02 -9.047619e-01 0.000000e+00
7.936508e-02 -9.047619e-01 0.000000e+00
1.111111e-01 -9.047619e-01 0.000000e+00
1.428571e-01 -9.047619e-01 0.000000e+00
1.746032e-01 -9.047619e-01 0.000000e+00
2.063492e-01 -9.047619e-01 0.000000e+00
2.380952e-01 -9.047619e-01 0.000000e+00
2.698413e-01 -9.047619e-01 0.000000e+00
3.015873e-01 -9.047619e-01 0.000000e+00
3.333333e-01 -9.047619e-01 0.000000e+00
3.650794e-01 -9.047619e-01 0.000000e+00
3.968254e-01 -9.047619e-01 0.000000e+00
4.285714e-01 -9.047619e-01 0.000000e+00
4.603175e-01 -9.047619e-01 0.000000e+00
4.920635e-01 -9.047619e-01 0.000000e+00
5.238095e-01 -9.047619e-01 0.000000e+00
5.555556e-01 -9.047619e-01 0.000000e+00
5.873016e-01 -9.047619e-01 0.000000e+00
6.190476e-01 -9.047619e-01 0.000000e+00
[...]
POINT_DATA 4096 
SCALARS concentration double 1 
LOOKUP_TABLE default 
1.025678e+00 
1.002432e+00 
9.795134e-01 
9.569848e-01 
9.348792e-01 
9.132212e-01 
8.920368e-01 
8.713538e-01 
8.512024e-01 
8.316144e-01 
8.126235e-01 
7.942653e-01 
7.765775e-01 
7.596000e-01 
7.433745e-01 
7.279450e-01 
7.133572e-01 
6.996588e-01 
6.868977e-01 
6.751219e-01 
6.643796e-01 
6.547182e-01 
6.461854e-01 
6.388287e-01 
6.326924e-01 
6.278162e-01 
6.242324e-01 
6.219655e-01 
6.217296e-01 
6.237424e-01 
6.273619e-01 
6.324167e-01 
6.388066e-01 
6.464584e-01 
6.553117e-01 
6.653107e-01 
6.764014e-01 
6.885307e-01 
7.016467e-01 
7.156986e-01 
7.306370e-01 
7.464113e-01 
7.629747e-01 
7.802832e-01 
7.982953e-01 
8.169711e-01 
8.362731e-01 
8.561654e-01 
8.766144e-01 
8.975882e-01 
9.190567e-01 
9.409919e-01 
9.633670e-01 
9.861571e-01 
1.009339e+00 
1.032890e+00 
1.056791e+00 
1.081021e+00 
1.105563e+00 
1.130400e+00 
1.155515e+00 
1.180894e+00 
1.206523e+00 
1.232388e+00 
1.004167e+00 
9.805161e-01 
9.571834e-01 
9.342316e-01 
9.116940e-01 
8.895962e-01 
8.679648e-01 
8.468283e-01 
8.262178e-01 
8.061659e-01 
7.867076e-01 
7.678801e-01 
7.497229e-01 
7.322776e-01 
7.155885e-01 
6.997020e-01 
6.846669e-01 
6.705342e-01 
6.573559e-01 
6.451840e-01 
6.340710e-01 
6.240692e-01 
6.152305e-01 
6.076071e-01 
6.012481e-01 
5.961978e-01 
5.924926e-01 
5.901631e-01 
5.899991e-01 
5.921354e-01 
5.959223e-01 
6.011881e-01 
6.078311e-01 
6.157750e-01 
6.249562e-01 
6.353147e-01 
6.467921e-01 
6.593310e-01 
6.728753e-01 
6.873704e-01 
7.027632e-01 
7.190003e-01 
7.360317e-01 
7.538111e-01 
7.722945e-01 
7.914403e-01 
8.112093e-01 
8.315644e-01 
8.524707e-01 
8.738953e-01 
8.958075e-01 
9.181784e-01 
9.409810e-01 
9.641900e-01 
9.877817e-01 
1.011734e+00 
1.036026e+00 
1.060638e+00 
1.085553e+00 
1.110752e+00 
1.136222e+00 
1.161946e+00 
1.187910e+00 
1.214103e+00 
9.831251e-01 
9.590601e-01 
9.353053e-01 
9.119217e-01 
8.889428e-01 
8.663947e-01 
8.443044e-01 
8.227012e-01 
8.016169e-01 
7.810851e-01 
7.611421e-01 
7.418264e-01 
7.231793e-01 
7.052447e-01 
6.880692e-01 
6.717018e-01 
6.561946e-01 
6.416019e-01 
6.279800e-01 
6.153858e-01 
6.038765e-01 
5.935099e-01 
5.843428e-01 
5.764325e-01 
5.698336e-01 
5.645955e-01 
5.607595e-01 
5.583624e-01 
5.582725e-01 
5.605375e-01 
5.645015e-01 
5.699925e-01 
5.769065e-01 
5.851639e-01 
5.946965e-01 
6.054394e-01 
6.173293e-01 
6.303039e-01 
6.443024e-01 
6.592659e-01 
6.751377e-01 
6.918609e-01 
7.093824e-01 
7.276533e-01 
7.466274e-01 
7.662612e-01 
7.865137e-01 
8.073466e-01 
8.287238e-01 
8.506116e-01 
8.729786e-01 
8.957953e-01 
9.190342e-01 
9.426698e-01 
9.666781e-01 
9.910368e-01 
1.015725e+00 
1.040724e+00 
1.066015e+00 
1.091581e+00 
1.117407e+00 
1.143478e+00 
1.169780e+00 
1.196300e+00 
9.625633e-01 
9.380793e-01 
9.138964e-01 
8.900740e-01 
8.666455e-01 
8.436374e-01 
8.210771e-01 
7.989947e-01 
7.774224e-01 
7.563949e-01 
7.359498e-01 
7.161270e-01 
6.969695e-01 
6.785234e-01 
6.608378e-01 
6.439647e-01 
6.279593e-01 
6.128797e-01 
5.987867e-01 
5.857423e-01 
5.738091e-01 
5.630506e-01 
5.535301e-01 
5.453103e-01 
5.384521e-01 
5.330109e-01 
5.290338e-01 
5.265637e-01 
5.265493e-01 
5.289487e-01 
5.331013e-01 
5.388334e-01 
5.460384e-01 
5.546324e-01 
5.645418e-01 
5.756960e-01 
5.880259e-01 
6.014637e-01 
6.159436e-01 
6.314020e-01 
6.477780e-01 
6.650111e-01 
6.830452e-01 
7.018285e-01 
7.213125e-01 
7.414518e-01 
7.622038e-01 
7.835289e-01 
8.053900e-01 
8.277526e-01 
8.505845e-01 
8.738559e-01 
8.975389e-01 
9.216076e-01 
9.460382e-01 
9.708083e-01 
9.958970e-01 
1.021285e+00 
1.046955e+00 
1.072889e+00 
1.099073e+00 
1.125491e+00 
1.152131e+00 
1.178980e+00 
9.425103e-01 
9.176030e-01 
8.929867e-01 
8.687191e-01 
8.448331e-01 
8.213555e-01 
7.983145e-01 
7.757403e-01 
7.536659e-01 
7.321270e-01 
7.111620e-01 
6.908125e-01 
6.711234e-01 
6.521427e-01 
6.339222e-01 
6.165169e-01 
5.999855e-01 
5.843900e-01 
5.697959e-01 
5.562708e-01 
5.438834e-01 
5.327035e-01 
5.228015e-01 
5.142470e-01 
5.071078e-01 
5.014463e-01 
4.973161e-01 
4.947672e-01 
4.948291e-01 
4.973698e-01 
5.017238e-01 
5.077153e-01 
5.152339e-01 
5.241904e-01 
5.345048e-01 
5.460999e-01 
5.589000e-01 
5.728311e-01 
5.878218e-01 
6.038033e-01 
6.207102e-01 
6.384784e-01 
6.570484e-01 
6.763655e-01 
6.963790e-01 
7.170416e-01 
7.383091e-01 
7.601407e-01 
7.824983e-01 
8.053467e-01 
8.286531e-01 
8.523873e-01 
8.765214e-01 
9.010292e-01 
9.258868e-01 
9.510720e-01 
9.765640e-01 
1.002344e+00 
1.028394e+00 
1.054697e+00 
1.081239e+00 
1.108004e+00 
1.134981e+00 
1.162156e+00 
9.229953e-01 
8.976614e-01 
8.726070e-01 
8.478885e-01 
8.235377e-01 
7.995820e-01 
7.760497e-01 
7.529716e-01 
7.303813e-01 
7.083150e-01 
6.868124e-01 
6.659164e-01 
6.456737e-01 
6.261345e-01 
6.073531e-01 
5.893877e-01 
5.723006e-01 
5.561581e-01 
5.410305e-01 
5.269915e-01 
5.141165e-01 
5.024824e-01 
4.921676e-01 
4.832500e-01 
4.758053e-01 
4.699040e-01 
4.656074e-01 
4.629731e-01 
4.631116e-01 
4.658018e-01 
4.703719e-01 
4.766436e-01 
4.845015e-01 
4.938496e-01 
5.046007e-01 
5.166695e-01 
5.299729e-01 
5.444300e-01 
5.599630e-01 
5.764978e-01 
5.939640e-01 
6.122937e-01 
6.314237e-01 
6.512968e-01 
6.718598e-01 
6.930636e-01 
7.148626e-01 
7.372147e-01 
7.600810e-01 
7.834257e-01 
8.072157e-01 
8.314204e-01 
8.560117e-01 
8.809637e-01 
9.062523e-01 
9.318555e-01 
9.577528e-01 
9.839255e-01 
1.010356e+00 
1.037028e+00 
1.063927e+00 
1.091039e+00 
1.118351e+00 
1.145851e+00 
9.040484e-01 
8.782841e-01 
8.527879e-01 
8.276134e-01 
8.027915e-01 
7.783496e-01 
7.543165e-01 
7.307232e-01 
7.076034e-01 
6.849944e-01 
6.629366e-01 
6.414743e-01 
6.206559e-01 
6.005336e-01 
5.811645e-01 
5.626098e-01 
5.449356e-01 
5.282127e-01 
5.125166e-01 
4.979275e-01 
4.845281e-01 
4.724038e-01 
4.616412e-01 
4.523284e-01 
4.445505e-01 
4.383871e-01 
4.339089e-01 
4.311820e-01 
4.313973e-01 
4.342463e-01 
4.390496e-01 
4.456250e-01 
4.538511e-01 
4.636239e-01 
4.748469e-01 
4.874258e-01 
5.012689e-01 
5.162875e-01 
5.323969e-01 
5.495170e-01 
5.675725e-01 
5.864910e-01 
6.062062e-01 
6.266578e-01 
6.477905e-01 
6.695533e-01 
6.918994e-01 
7.147857e-01 
7.381725e-01 
7.620235e-01 
7.863054e-01 
8.109874e-01 
8.360415e-01 
8.614418e-01 
8.871646e-01 
9.131879e-01 
9.394918e-01 
9.660578e-01 
9.928686e-01 
1.019909e+00 
1.047163e+00 
1.074619e+00 
1.102264e+00 
1.130086e+00 
8.856907e-01 
8.594932e-01 
8.335525e-01 
8.079188e-01 
7.826211e-01 
7.576870e-01 
7.331451e-01 
7.090266e-01 
6.853655e-01 
6.621995e-01 
6.395701e-01 
6.175226e-01 
5.961068e-01 
5.753771e-01 
5.553930e-01 
5.362189e-01 
5.179248e-01 
5.005861e-01 
4.842841e-01 
4.691054e-01 
4.551413e-01 
4.424864e-01 
4.312375e-01 
4.214933e-01 
4.133504e-01 
4.068995e-01 
4.022222e-01 
3.993946e-01 
3.996873e-01 
4.027063e-01 
4.077619e-01 
4.146679e-01 
4.232951e-01 
4.335297e-01 
4.452641e-01 
4.583934e-01 
4.728159e-01 
4.884343e-01 
5.051564e-01 
5.228957e-01 
5.415714e-01 
5.611068e-01 
5.814323e-01 
6.024849e-01 
6.242070e-01 
6.465461e-01 
6.694542e-01 
6.928873e-01 
7.168052e-01 
7.411714e-01 
7.659523e-01 
7.911172e-01 
8.166384e-01 
8.424901e-01 
8.686489e-01 
8.950935e-01 
9.218041e-01 
9.487627e-01 
9.759528e-01 
1.003359e+00 
1.030967e+00 
1.058765e+00 
1.086739e+00 
1.114880e+00 
8.679211e-01 
8.412982e-01 
8.149145e-01 
7.888212e-01 
7.630467e-01 
7.376175e-01 
7.125622e-01 
6.879117e-01 
6.637003e-01 
6.399661e-01 
6.167509e-01 
5.941013e-01 
5.720682e-01 
5.507079e-01 
5.300822e-01 
5.102586e-01 
4.913109e-01 
4.733196e-01 
4.563717e-01 
4.405613e-01 
4.259887e-01 
4.127589e-01 
4.009802e-01 
3.907637e-01 
3.822194e-01 
3.754520e-01 
3.705554e-01 
3.676155e-01 
3.679748e-01 
3.711706e-01 
3.764993e-01 
3.837662e-01 
3.928318e-01 
4.035700e-01 
4.158597e-01 
4.295838e-01 
4.446293e-01 
4.608891e-01 
4.782629e-01 
4.966572e-01 
5.159856e-01 
5.361668e-01 
5.571279e-01 
5.788035e-01 
6.011340e-01 
6.240657e-01 
6.475494e-01 
6.715405e-01 
6.959986e-01 
7.208869e-01 
7.461720e-01 
7.718236e-01 
7.978140e-01 
8.241181e-01 
8.507129e-01 
8.775776e-01 
9.046930e-01 
9.320416e-01 
9.596074e-01 
9.873757e-01 
1.015333e+00 
1.043467e+00 
1.071766e+00 
1.100220e+00 
8.508518e-01 
8.237956e-01 
7.969655e-01 
7.704096e-01 
7.441541e-01 
7.182244e-01 
6.926481e-01 
6.674562e-01 
6.426828e-01 
6.183661e-01 
5.945483e-01 
5.712766e-01 
5.486030e-01 
5.265854e-01 
5.052876e-01 
4.847801e-01 
4.651407e-01 
4.464547e-01 
4.288156e-01 
4.123252e-01 
3.970934e-01 
3.832369e-01 
3.708774e-01 
3.601401e-01 
3.511515e-01 
3.440331e-01 
3.388936e-01 
3.358328e-01 
3.362644e-01 
3.396561e-01 
3.452866e-01 
3.529529e-01 
3.625023e-01 
3.737929e-01 
3.866884e-01 
4.010570e-01 
4.167732e-01 
4.337190e-01 
4.517850e-01 
4.708709e-01 
4.908840e-01 
5.117387e-01 
5.333592e-01 
5.556779e-01 
5.786334e-01 
6.021708e-01 
6.262403e-01 
6.507969e-01 
6.758000e-01 
7.012132e-01 
7.270033e-01 
7.531404e-01 
7.795974e-01 
8.063498e-01 
8.333752e-01 
8.606536e-01 
8.881662e-01 
9.158965e-01 
9.438290e-01 
9.719496e-01 
1.000246e+00 
1.028705e+00 
1.057318e+00 
1.086073e+00 
8.344915e-01 
8.070080e-01 
7.797338e-01 
7.527151e-01 
7.259770e-01 
6.995437e-01 
6.734420e-01 
6.477020e-01 
6.223577e-01 
5.974469e-01 
5.730122e-01 
5.491007e-01 
5.257655e-01 
5.030653e-01 
4.810660e-01 
4.598405e-01 
4.394705e-01 
4.200462e-01 
4.016676e-01 
3.844449e-01 
3.684984e-01 
3.539579e-01 
3.409603e-01 
3.296482e-01 
3.201667e-01 
3.126572e-01 
3.072474e-01 
3.040533e-01 
3.045546e-01 
3.081588e-01 
3.141220e-01 
3.222309e-01 
3.323158e-01 
3.442158e-01 
3.577755e-01 
3.728462e-01 
3.892876e-01 
4.069701e-01 
4.257748e-01 
4.455935e-01 
4.663278e-01 
4.878882e-01 
5.101960e-01 
5.331816e-01 
5.567824e-01 
5.809424e-01 
6.056116e-01 
6.307449e-01 
6.563022e-01 
6.822473e-01 
7.085476e-01 
7.351740e-01 
7.621001e-01 
7.893022e-01 
8.167587e-01 
8.444502e-01 
8.723591e-01 
9.004693e-01 
9.287662e-01 
9.572366e-01 
9.858684e-01 
1.014650e+00 
1.043572e+00 
1.072625e+00 
8.188674e-01 
7.909611e-01 
7.632463e-01 
7.357673e-01 
7.085479e-01 
6.816113e-01 
6.549830e-01 
6.286920e-01 
6.027714e-01 
5.772585e-01 
5.521955e-01 
5.276296e-01 
5.036138e-01 
4.802078e-01 
4.574786e-01 
4.355016e-01 
4.143616e-01 
3.941538e-01 
3.749847e-01 
3.569733e-01 
3.402510e-01 
3.249620e-01 
3.112610e-01 
2.993108e-01 
2.892791e-01 
2.813314e-01 
2.756186e-01 
2.722774e-01 
2.728447e-01 
2.766812e-01 
2.830141e-01 
2.916165e-01 
3.022973e-01 
3.148714e-01 
3.291605e-01 
3.449959e-01 
3.622212e-01 
3.806934e-01 
4.002838e-01 
4.208765e-01 
4.423672e-01 
4.646630e-01 
4.876831e-01 
5.113559e-01 
5.356182e-01 
5.604136e-01 
5.856921e-01 
6.114091e-01 
6.375250e-01 
6.640044e-01 
6.908157e-01 
7.179306e-01 
7.453238e-01 
7.729725e-01 
8.008562e-01 
8.289563e-01 
8.572561e-01 
8.857406e-01 
9.143960e-01 
9.432099e-01 
9.721708e-01 
1.001269e+00 
1.030494e+00 
1.059837e+00 
8.040181e-01 
7.756960e-01 
7.475466e-01 
7.196122e-01 
6.919154e-01 
6.644780e-01 
6.373243e-01 
6.104820e-01 
5.839826e-01 
5.578625e-01 
5.321628e-01 
5.069302e-01 
4.822173e-01 
4.580840e-01 
4.345979e-01 
4.118362e-01 
3.898866e-01 
3.688484e-01 
3.488348e-01 
3.299733e-01 
3.124076e-01 
2.962975e-01 
2.818180e-01 
2.691560e-01 
2.585066e-01 
2.500645e-01 
2.440098e-01 
2.405054e-01 
2.411344e-01 
2.452270e-01 
2.519737e-01 
2.611306e-01 
2.724786e-01 
2.858019e-01 
3.008945e-01 
3.175645e-01 
3.356371e-01 
3.549556e-01 
3.753807e-01 
3.967890e-01 
4.190709e-01 
4.421309e-01 
4.658862e-01 
4.902645e-01 
5.152020e-01 
5.406427e-01 
5.665372e-01 
5.928417e-01 
6.195176e-01 
6.465308e-01 
6.738507e-01 
7.014504e-01 
7.293057e-01 
7.573951e-01 
7.856991e-01 
8.142005e-01 
8.428835e-01 
8.717340e-01 
9.007394e-01 
9.298880e-01 
9.591695e-01 
9.885741e-01 
1.018093e+00 
1.047719e+00 
7.899813e-01 
7.612528e-01 
7.326775e-01 
7.042956e-01 
6.761281e-01 
6.481955e-01 
6.205207e-01 
5.931298e-01 
5.660528e-01 
5.393240e-01 
5.129830e-01 
4.870751e-01 
4.616520e-01 
4.367728e-01 
4.125055e-01 
3.889277e-01 
3.661292e-01 
3.442131e-01 
3.232983e-01 
3.035211e-01 
2.850376e-01 
2.680246e-01 
2.526799e-01 
2.392192e-01 
2.278715e-01 
2.188678e-01 
2.124240e-01 
2.087378e-01 
2.094236e-01 
2.138007e-01 
2.210152e-01 
2.308006e-01 
2.429003e-01 
2.570602e-01 
2.730405e-01 
2.906226e-01 
3.096114e-01 
3.298357e-01 
3.511456e-01 
3.734108e-01 
3.965175e-01 
4.203683e-01 
4.448794e-01 
4.699783e-01 
4.956017e-01 
5.216944e-01 
5.482082e-01 
5.751008e-01 
6.023351e-01 
6.298783e-01 
6.577016e-01 
6.857794e-01 
7.140891e-01 
7.426104e-01 
7.713255e-01 
8.002183e-01 
8.292742e-01 
8.584804e-01 
8.878252e-01 
9.172980e-01 
9.468893e-01 
9.765902e-01 
1.006393e+00 
1.036290e+00 
7.767906e-01 
7.476680e-01 
7.186787e-01 
6.898607e-01 
6.612330e-01 
6.328148e-01 
6.046272e-01 
5.766947e-01 
5.490452e-01 
5.217108e-01 
4.947287e-01 
4.681419e-01 
4.420003e-01 
4.163615e-01 
3.912924e-01 
3.668705e-01 
3.431862e-01 
3.203454e-01 
2.984715e-01 
2.777089e-01 
2.582261e-01 
2.402181e-01 
2.239081e-01 
2.095460e-01 
1.974024e-01 
1.877556e-01 
1.808651e-01 
1.769751e-01 
1.777121e-01 
1.824083e-01 
1.901570e-01 
2.006612e-01 
2.136142e-01 
2.287128e-01 
2.456765e-01 
2.642560e-01 
2.842346e-01 
3.054261e-01 
3.276710e-01 
3.508329e-01 
3.747954e-01 
3.994603e-01 
4.247440e-01 
4.505747e-01 
4.768904e-01 
5.036376e-01 
5.307700e-01 
5.582472e-01 
5.860342e-01 
6.141001e-01 
6.424179e-01 
6.709640e-01 
6.997173e-01 
7.286594e-01 
7.577737e-01 
7.870457e-01 
8.164621e-01 
8.460114e-01 
8.756828e-01 
9.054670e-01 
9.353554e-01 
9.653402e-01 
9.954143e-01 
1.025571e+00 
7.644711e-01 
7.349712e-01 
7.055843e-01 
6.763461e-01 
6.472740e-01 
6.183850e-01 
5.896986e-01 
5.612369e-01 
5.330256e-01 
5.050944e-01 
4.774775e-01 
4.502148e-01 
4.233531e-01 
3.969474e-01 
3.710623e-01 
3.457736e-01 
3.211711e-01 
2.973612e-01 
2.744705e-01 
2.526501e-01 
2.320799e-01 
2.129735e-01 
1.955823e-01 
1.801958e-01 
1.671369e-01 
1.567454e-01 
1.493367e-01 
1.452167e-01 
1.459987e-01 
1.510564e-01 
1.594225e-01 
1.707580e-01 
1.846877e-01 
2.008448e-01 
2.189001e-01 
2.385703e-01 
2.596160e-01 
2.818367e-01 
3.050649e-01 
3.291599e-01 
3.540048e-01 
3.795019e-01 
4.055691e-01 
4.321365e-01 
4.591447e-01 
4.865429e-01 
5.142873e-01 
5.423402e-01 
5.706690e-01 
5.992453e-01 
6.280444e-01 
6.570447e-01 
6.862271e-01 
7.155749e-01 
7.450734e-01 
7.747095e-01 
8.044713e-01 
8.343487e-01 
8.643321e-01 
8.944133e-01 
9.245846e-01 
9.548391e-01 
9.851708e-01 
1.015574e+00 
7.530496e-01 
7.231934e-01 
6.934298e-01 
6.637924e-01 
6.342966e-01 
6.049574e-01 
5.757919e-01 
5.468198e-01 
5.180641e-01 
4.895515e-01 
4.613129e-01 
4.333845e-01 
4.058090e-01 
3.786373e-01 
3.519300e-01 
3.257597e-01 
3.002132e-01 
2.753955e-01 
2.514337e-01 
2.284828e-01 
2.067322e-01 
1.864134e-01 
1.678071e-01 
1.512486e-01 
1.371260e-01 
1.258617e-01 
1.178450e-01 
1.134623e-01 
1.142794e-01 
1.197483e-01 
1.288371e-01 
1.411462e-01 
1.562038e-01 
1.735610e-01 
1.928307e-01 
2.136926e-01 
2.358854e-01 
2.591967e-01 
2.834529e-01 
3.085125e-01 
3.342600e-01 
3.606005e-01 
3.874550e-01 
4.147572e-01 
4.424515e-01 
4.704904e-01 
4.988339e-01 
5.274473e-01 
5.563013e-01 
5.853702e-01 
6.146319e-01 
6.440671e-01 
6.736592e-01 
7.033932e-01 
7.332563e-01 
7.632369e-01 
7.933250e-01 
8.235116e-01 
8.537884e-01 
8.841484e-01 
9.145849e-01 
9.450920e-01 
9.756642e-01 
1.006297e+00 
7.426508e-01 
7.124549e-01 
6.823329e-01 
6.523157e-01 
6.224161e-01 
5.926468e-01 
5.630226e-01 
5.335603e-01 
5.042798e-01 
4.752043e-01 
4.463608e-01 
4.177815e-01 
3.895041e-01 
3.615741e-01 
3.340464e-01 
3.069879e-01 
2.804799e-01 
2.546224e-01 
2.295395e-01 
2.053860e-01 
1.823573e-01 
1.606993e-01 
1.407220e-01 
1.228111e-01 
1.074361e-01 
9.513383e-02 
8.639227e-02 
8.170969e-02 
8.255860e-02 
8.850507e-02 
9.845628e-02 
1.119228e-01 
1.282960e-01 
1.470194e-01 
1.676393e-01 
1.897982e-01 
2.132160e-01 
2.376724e-01 
2.629927e-01 
2.890385e-01 
3.156989e-01 
3.428838e-01 
3.705197e-01 
3.985454e-01 
4.269102e-01 
4.555714e-01 
4.844931e-01 
5.136448e-01 
5.430004e-01 
5.725377e-01 
6.022373e-01 
6.320826e-01 
6.620591e-01 
6.921543e-01 
7.223569e-01 
7.526574e-01 
7.830472e-01 
8.135184e-01 
8.440645e-01 
8.746793e-01 
9.053574e-01 
9.360939e-01 
9.668844e-01 
9.977248e-01 
7.332865e-01 
7.027764e-01 
6.723207e-01 
6.419487e-01 
6.116712e-01 
5.814987e-01 
5.514433e-01 
5.215190e-01 
4.917420e-01 
4.621318e-01 
4.327111e-01 
4.035068e-01 
3.745516e-01 
3.458844e-01 
3.175528e-01 
2.896154e-01 
2.621447e-01 
2.352316e-01 
2.089918e-01 
1.835745e-01 
1.591738e-01 
1.360441e-01 
1.145196e-01 
9.503815e-02 
7.816796e-02 
6.461114e-02 
5.498801e-02 
4.996075e-02 
5.083425e-02 
5.733945e-02 
6.833915e-02 
8.320543e-02 
1.011290e-01 
1.214124e-01 
1.435293e-01 
1.670899e-01 
1.918032e-01 
2.174485e-01 
2.438571e-01 
2.708987e-01 
2.984703e-01 
3.264901e-01 
3.548919e-01 
3.836215e-01 
4.126346e-01 
4.418941e-01 
4.713692e-01 
5.010337e-01 
5.308657e-01 
5.608463e-01 
5.909593e-01 
6.211909e-01 
6.515289e-01 
6.819630e-01 
7.124840e-01 
7.430839e-01 
7.737556e-01 
8.044929e-01 
8.352903e-01 
8.661428e-01 
8.970460e-01 
9.279960e-01 
9.589891e-01 
9.900221e-01 
7.249801e-01 
6.941830e-01 
6.634227e-01 
6.327266e-01 
6.021036e-01 
5.715617e-01 
5.411104e-01 
5.107606e-01 
4.805250e-01 
4.504188e-01 
4.204601e-01 
3.906706e-01 
3.610764e-01 
3.317095e-01 
3.026088e-01 
2.738224e-01 
2.454102e-01 
2.174493e-01 
1.900405e-01 
1.633188e-01 
1.374671e-01 
1.127357e-01 
8.947047e-02 
6.815436e-02 
4.946542e-02 
3.436113e-02 
2.364108e-02 
1.821430e-02 
1.910483e-02 
2.627439e-02 
3.857940e-02 
5.517614e-02 
7.494800e-02 
9.701162e-02 
1.207735e-01 
1.458275e-01 
1.718867e-01 
1.987429e-01 
2.262419e-01 
2.542671e-01 
2.827284e-01 
3.115550e-01 
3.406904e-01 
3.700893e-01 
3.997147e-01 
4.295361e-01 
4.595282e-01 
4.896699e-01 
5.199434e-01 
5.503335e-01 
5.808273e-01 
6.114137e-01 
6.420832e-01 
6.728275e-01 
7.036393e-01 
7.345124e-01 
7.654412e-01 
7.964207e-01 
8.274468e-01 
8.585155e-01 
8.896233e-01 
9.207671e-01 
9.519443e-01 
9.831522e-01 
7.177793e-01 
6.867259e-01 
6.556933e-01 
6.247073e-01 
5.937750e-01 
5.629023e-01 
5.320959e-01 
5.013637e-01 
4.707151e-01 
4.401610e-01 
4.097149e-01 
3.793928e-01 
3.492145e-01 
3.192041e-01 
2.893907e-01 
2.598103e-01 
2.305073e-01 
2.015398e-01 
1.729866e-01 
1.449582e-01 
1.176113e-01 
9.117110e-02 
6.596884e-02 
4.250457e-02 
2.154696e-02 
4.483146e-03 
-7.448177e-03 
-1.320582e-02 
-1.202503e-02 
-4.252237e-03 
9.323266e-03 
2.812273e-02 
5.012192e-02 
7.419834e-02 
9.973195e-02 
1.263375e-01 
1.537574e-01 
1.818122e-01 
2.103723e-01 
2.393415e-01 
2.686464e-01 
2.982306e-01 
3.280493e-01 
3.580671e-01 
3.882552e-01 
4.185903e-01 
4.490529e-01 
4.796271e-01 
5.102993e-01 
5.410581e-01 
5.718939e-01 
6.027983e-01 
6.337642e-01 
6.647853e-01 
6.958564e-01 
7.269727e-01 
7.581300e-01 
7.893248e-01 
8.205537e-01 
8.518140e-01 
8.831031e-01 
9.144187e-01 
9.457587e-01 
9.771213e-01 
7.117342e-01 
6.804576e-01 
6.491874e-01 
6.179489e-01 
5.867474e-01 
5.555867e-01 
5.244712e-01 
4.934061e-01 
4.623974e-01 
4.314525e-01 
4.005805e-01 
3.697924e-01 
3.391017e-01 
3.085249e-01 
2.780812e-01 
2.477929e-01 
2.176873e-01 
1.878005e-01 
1.581837e-01 
1.289121e-01 
1.000973e-01 
7.190771e-02 
4.460964e-02 
1.866635e-02 
-4.447874e-03 
-2.329476e-02 
-3.637701e-02 
-4.401315e-02 
-4.217353e-02 
-3.220907e-02 
-1.714638e-02 
2.841506e-03 
2.723697e-02 
5.351453e-02 
8.087466e-02 
1.090203e-01 
1.377557e-01 
1.669461e-01 
1.964953e-01 
2.263330e-01 
2.564061e-01 
2.866741e-01 
3.171051e-01 
3.476741e-01 
3.783609e-01 
4.091492e-01 
4.400254e-01 
4.709786e-01 
5.019993e-01 
5.330796e-01 
5.642129e-01 
5.953935e-01 
6.266165e-01 
6.578775e-01 
6.891729e-01 
7.204994e-01 
7.518542e-01 
7.832346e-01 
8.146385e-01 
8.460640e-01 
8.775092e-01 
9.089725e-01 
9.404526e-01 
9.719481e-01 
7.069043e-01 
6.754409e-01 
6.439696e-01 
6.125178e-01 
5.810895e-01 
5.496868e-01 
5.183120e-01 
4.869681e-01 
4.556585e-01 
4.243875e-01 
3.931606e-01 
3.619849e-01 
3.308690e-01 
2.998227e-01 