# vtk DataFile Version 2.0 
Quadtree Mesh 
ASCII 
DATASET UNSTRUCTURED_GRID 
POINTS 4096 double 
-1.000000e+00 -1.000000e+00 0.000000e+00
-9.682540e-01 -1.000000e+00 0.000000e+00
-9.365079e-01 -1.000000e+00 0.000000e+00
-9.047619e-01 -1.000000e+00 0.000000e+00
-8.730159e-01 -1.000000e+00 0.000000e+00
-8.412698e-01 -1.000000e+00 0.000000e+00
-8.095238e-01 -1.000000e+00 0.000000e+00
-7.777778e-01 -1.000000e+00 0.000000e+00
-7.460317e-01 -1.000000e+00 0.000000e+00
-7.142857e-01 -1.000000e+00 0.000000e+00
-6.825397e-01 -1.000000e+00 0.000000e+00
-6.507937e-01 -1.000000e+00 0.000000e+00
-6.190476e-01 -1.000000e+00 0.000000e+00
-5.873016e-01 -1.000000e+00 0.000000e+00
-5.555556e-01 -1.000000e+00 0.000000e+00
-5.238095e-01 -1.000000e+00 0.000000e+00
-4.920635e-01 -1.000000e+00 0.000000e+00
-4.603175e-01 -1.000000e+00 0.000000e+00
-4.285714e-01 -1.000000e+00 0.000000e+00
-3.968254e-01 -1.000000e+00 0.000000e+00
-3.650794e-01 -1.000000e+00 0.000000e+00
-3.333333e-01 -1.000000e+00 0.000000e+00
-3.015873e-01 -1.000000e+00 0.000000e+00
-2.698413e-01 -1.000000e+00 0.000000e+00
-2.380952e-01 -1.000000e+00 0.000000e+00
-2.063492e-01 -1.000000e+00 0.000000e+00
-1.746032e-01 -1.000000e+00 0.000000e+00
-1.428571e-01 -1.000000e+00 0.000000e+00
-1.111111e-01 -1.000000e+00 0.000000e+00
-7.936508e-02 -1.000000e+00 0.000000e+00
-4.761905e-02 -1.000000e+00 0.000000e+00
-1.587302e-02 -1.000000e+00 0.000000e+00
1.587302e-02 -1.000000e+00 0.000000e+00
4.761905e-02 -1.000000e+00 0.000000e+00
7.936508e-02 -1.000000e+00 0.000000e+00
1.111111e-01 -1.000000e+00 0.000000e+00
1.428571e-01 -1.000000e+00 0.000000e+00
1.746032e-01 -1.000000e+00 0.000000e+00
2.063492e-01 -1.000000e+00 0.000000e+00
2.380952e-01 -1.000000e+00 0.000000e+00
2.698413e-01 -1.000000e+00 0.000000e+00
3.015873e-01 -1.000000e+00 0.000000e+00
3.333333e-01 -1.000000e+00 0.000000e+00
3.650794e-01 -1.000000e+00 0.000000e+00
3.968254e-01 -1.000000e+00 0.000000e+00
4.285714e-01 -1.000000e+00 0.000000e+00
4.603175e-01 -1.000000e+00 0.000000e+00
4.920635e-01 -1.000000e+00 0.000000e+00
5.238095e-01 -1.000000e+00 0.000000e+00
5.555556e-01 -1.000000e+00 0.000000e+00
5.873016e-01 -1.000000e+00 0.000000e+00
6.190476e-01 -1.000000e+00 0.000000e+00
6.507937e-01 -1.000000e+00 0.000000e+00
6.825397e-01 -1.000000e+00 0.000000e+00
7.142857e-01 -1.000000e+00 0.000000e+00
7.460317e-01 -1.000000e+00 0.000000e+00
7.777778e-01 -1.000000e+00 0.000000e+00
8.095238e-01 -1.000000e+00 0.000000e+00
8.412698e-01 -1.000000e+00 0.000000e+00
8.730159e-01 -1.000000e+00 0.000000e+00
9.047619e-01 -1.000000e+00 0.000000e+00
9.365079e-01 -1.000000e+00 0.000000e+00
9.682540e-01 -1.000000e+00 0.000000e+00
1.000000e+00 -1.000000e+00 0.000000e+00
-1.000000e+00 -9.682540e-01 0.000000e+00
-9.682540e-01 -9.682540e-01 0.000000e+00
-9.365079e-01 -9.682540e-01 0.000000e+00
-9.047619e-01 -9.682540e-01 0.000000e+00
-8.730159e-01 -9.682540e-01 0.000000e+00
-8.412698e-01 -9.682540e-01 0.000000e+00
-8.095238e-01 -9.682540e-01 0.000000e+00
-7.777778e-01 -9.682540e-01 0.000000e+00
-7.460317e-01 -9.682540e-01 0.000000e+00
-7.142857e-01 -9.682540e-01 0.000000e+00
-6.825397e-01 -9.682540e-01 0.000000e+00
-6.507937e-01 -9.682540e-01 0.000000e+00
-6.190476e-01 -9.682540e-01 0.000000e+00
-5.873016e-01 -9.682540e-01 0.000000e+00
-5.555556e-01 -9.682540e-01 0.000000e+00
-5.238095e-01 -9.682540e-01 0.000000e+00
-4.920635e-01 -9.682540e-01 0.000000e+00
-4.603175e-01 -9.682540e-01 0.000000e+00
-4.285714e-01 -9.682540e-01 0.000000e+00
-3.968254e-01 -9.682540e-01 0.000000e+00
-3.650794e-01 -9.682540e-01 0.000000e+00
-3.333333e-01 -9.682540e-01 0.000000e+00
-3.015873e-01 -9.682540e-01 0.000000e+00
-2.698413e-01 -9.682540e-01 0.000000e+00
-2.380952e-01 -9.682540e-01 0.000000e+00
-2.063492e-01 -9.682540e-01 0.000000e+00
-1.746032e-01 -9.682540e-01 0.000000e+00
-1.428571e-01 -9.682540e-01 0.000000e+00
-1.111111e-01 -9.682540e-01 0.000000e+00
-7.936508e-02 -9.682540e-01 0.000000e+00
-4.761905e-02 -9.682540e-01 0.000000e+00
-1.587302e-02 -9.682540e-01 0.000000e+00
1.587302e-02 -9.682540e-01 0.000000e+00
4.761905e-02 -9.682540e-01 0.000000e+00
7.936508e-02 -9.682540e-01 0.000000e+00
1.111111e-01 -9.682540e-01 0.000000e+00
1.428571e-01 -9.682540e-01 0.000000e+00
1.746032e-01 -9.682540e-01 0.000000e+00
2.063492e-01 -9.682540e-01 0.000000e+00
2.380952e-01 -9.682540e-01 0.000000e+00
2.698413e-01 -9.682540e-01 0.000000e+00
3.015873e-01 -9.682540e-01 0.000000e+00
3.333333e-01 -9.682540e-01 0.000000e+00
3.650794e-01 -9.682540e-01 0.000000e+00
3.968254e-01 -9.682540e-01 0.000000e+00
4.285714e-01 -9.682540e-01 0.000000e+00
4.603175e-01 -9.682540e-01 0.000000e+00
4.920635e-01 -9.682540e-01 0.000000e+00
5.238095e-01 -9.682540e-01 0.000000e+00
5.555556e-01 -9.682540e-01 0.000000e+00
5.873016e-01 -9.682540e-01 0.000000e+00
6.190476e-01 -9.682540e-01 0.000000e+00
6.507937e-01 -9.682540e-01 0.000000e+00
6.825397e-01 -9.682540e-01 0.000000e+00
7.142857e-01 -9.682540e-01 0.000000e+00
7.460317e-01 -9.682540e-01 0.000000e+00
7.777778e-01 -9.682540e-01 0.000000e+00
8.095238e-01 -9.682540e-01 0.000000e+00
8.412698e-01 -9.682540e-01 0.000000e+00
8.730159e-01 -9.682540e-01 0.000000e+00
9.047619e-01 -9.682540e-01 0.000000e+00
9.365079e-01 -9.682540e-01 0.000000e+00
9.682540e-01 -9.682540e-01 0.000000e+00
1.000000e+00 -9.682540e-01 0.000000e+00
-1.000000e+00 -9.365079e-01 0.000000e+00
-9.682540e-01 -9.365079e-01 0.000000e+00
-9.365079e-01 -9.365079e-01 0.000000e+00
-9.047619e-01 -9.365079e-01 0.000000e+00
-8.730159e-01 -9.365079e-01 0.000000e+00
-8.412698e-01 -9.365079e-01 0.000000e+00
-8.095238e-01 -9.365079e-01 0.000000e+00
-7.777778e-01 -9.365079e-01 0.000000e+00
-7.460317e-01 -9.365079e-01 0.000000e+00
-7.142857e-01 -9.365079e-01 0.000000e+00
-6.825397e-01 -9.365079e-01 0.000000e+00
-6.507937e-01 -9.365079e-01 0.000000e+00
-6.190476e-01 -9.365079e-01 0.000000e+00
-5.873016e-01 -9.365079e-01 0.000000e+00
-5.555556e-01 -9.365079e-01 0.000000e+00
-5.238095e-01 -9.365079e-01 0.000000e+00
-4.920635e-01 -9.365079e-01 0.000000e+00
-4.603175e-01 -9.365079e-01 0.000000e+00
-4.285714e-01 -9.365079e-01 0.000000e+00
-3.968254e-01 -9.365079e-01 0.000000e+00
-3.650794e-01 -9.365079e-01 0.000000e+00
-3.333333e-01 -9.365079e-01 0.000000e+00
-3.015873e-01 -9.365079e-01 0.000000e+00
-2.698413e-01 -9.365079e-01 0.000000e+00
-2.380952e-01 -9.365079e-01 0.000000e+00
-2.063492e-01 -9.365079e-01 0.000000e+00
-1.746032e-01 -9.365079e-01 0.000000e+00
-1.428571e-01 -9.365079e-01 0.000000e+00
-1.111111e-01 -9.365079e-01 0.000000e+00
-7.936508e-02 -9.365079e-01 0.000000e+00
-4.761905e-02 -9.365079e-01 0.000000e+00
-1.587302e-02 -9.365079e-01 0.000000e+00
1.587302e-02 -9.365079e-01 0.000000e+00
4.761905e-02 -9.365079e-01 0.000000e+00
7.936508e-02 -9.365079e-01 0.000000e+00
1.111111e-01 -9.365079e-01 0.000000e+00
1.428571e-01 -9.365079e-01 0.000000e+00
1.746032e-01 -9.365079e-01 0.000000e+00
2.063492e-01 -9.365079e-01 0.000000e+00
2.380952e-01 -9.365079e-01 0.000000e+00
2.698413e-01 -9.365079e-01 0.000000e+00
3.015873e-01 -9.365079e-01 0.000000e+00
3.333333e-01 -9.365079e-01 0.000000e+00
3.650794e-01 -9.365079e-01 0.000000e+00
3.968254e-01 -9.365079e-01 0.000000e+00
4.285714e-01 -9.365079e-01 0.000000e+00
4.603175e-01 -9.365079e-01 0.000000e+00
4.920635e-01 -9.365079e-01 0.000000e+00
5.238095e-01 -9.365079e-01 0.000000e+00
5.555556e-01 -9.365079e-01 0.000000e+00
5.873016e-01 -9.365079e-01 0.000000e+00
6.190476e-01 -9.365079e-01 0.000000e+00
6.507937e-01 -9.365079e-01 0.000000e+00
6.825397e-01 -9.365079e-01 0.000000e+00
7.142857e-01 -9.365079e-01 0.000000e+00
7.460317e-01 -9.365079e-01 0.000000e+00
7.777778e-01 -9.365079e-01 0.000000e+00
8.095238e-01 -9.365079e-01 0.000000e+00
8.412698e-01 -9.365079e-01 0.000000e+00
8.730159e-01 -9.365079e-01 0.000000e+00
9.047619e-01 -9.365079e-01 0.000000e+00
9.365079e-01 -9.365079e-01 0.000000e+00
9.682540e-01 -9.365079e-01 0.000000e+00
1.000000e+00 -9.365079e-01 0.000000e+00
-1.000000e+00 -9.047619e-01 0.000000e+00
-9.682540e-01 -9.047619e-01 0.000000e+00
-9.365079e-01 -9.047619e-01 0.000000e+00
-9.047619e-01 -9.047619e-01 0.000000e+00
-8.730159e-01 -9.047619e-01 0.000000e+00
-8.412698e-01 -9.047619e-01 0.000000e+00
-8.095238e-01 -9.047619e-01 0.000000e+00
-7.777778e-01 -9.047619e-01 0.000000e+00
-7.460317e-01 -9.047619e-01 0.000000e+00
-7.142857e-01 -9.047619e-01 0.000000e+00
-6.825397e-01 -9.047619e-01 0.000000e+00
-6.507937e-01 -9.047619e-01 0.000000e+00
-6.190476e-01 -9.047619e-01 0.000000e+00
-5.873016e-01 -9.047619e-01 0.000000e+00
-5.555556e-01 -9.047619e-01 0.000000e+00
-5.238095e-01 -9.047619e-01 0.000000e+00
-4.920635e-01 -9.047619e-01 0.000000e+00
-4.603175e-01 -9.047619e-01 0.000000e+00
-4.285714e-01 -9.047619e-01 0.000000e+00
-3.968254e-01 -9.047619e-01 0.000000e+00
-3.650794e-01 -9.047619e-01 0.000000e+00
-3.333333e-01 -9.047619e-01 0.000000e+00
-3.015873e-01 -9.047619e-01 0.000000e+00
-2.698413e-01 -9.047619e-01 0.000000e+00
-2.380952e-01 -9.047619e-01 0.000000e+00
-2.063492e-01 -9.047619e-01 0.000000e+00
-1.746032e-01 -9.047619e-01 0.000000e+00
-1.428571e-01 -9.047619e-01 0.000000e+00
-1.111111e-01 -9.047619e-01 0.000000e+00
-7.936508e-02 -9.047619e-01 0.000000e+00
-4.761905e-02 -9.047619e-01 0.000000e+00
-1.587302e-02 -9.047619e-01 0.000000e+00
1.587302e-02 -9.047619e-01 0.000000e+00
4.761905e-02 -9.047619e-01 0.000000e+00
7.936508e-02 -9.047619e-01 0.000000e+00
1.111111e-01 -9.047619e-01 0.000000e+00
1.428571e-01 -9.047619e-01 0.000000e+00
1.746032e-01 -9.047619e-01 0.000000e+00
2.063492e-01 -9.047619e-01 0.000000e+00
2.380952e-01 -9.047619e-01 0.000000e+00
2.698413e-01 -9.047619e-01 0.000000e+00
3.015873e-01 -9.047619e-01 0.000000e+00
3.333333e-01 -9.047619e-01 0.000000e+00
3.650794e-01 -9.047619e-01 0.000000e+00
3.968254e-01 -9.047619e-01 0.000000e+00
4.285714e-01 -9.047619e-01 0.000000e+00
4.603175e-01 -9.047619e-01 0.000000e+00
4.920635e-01 -9.047619e-01 0.000000e+00
5.238095e-01 -9.047619e-01 0.000000e+00
5.555556e-01 -9.047619e-01 0.000000e+00
5.873016e-01 -9.047619e-01 0.000000e+00
6.190476e-01 -9.047619e-01 0.000000e+00
[...]
POINT_DATA 4096 
SCALARS concentration double 1 
LOOKUP_TABLE default 
1.047379e+00 
1.023409e+00 
9.997193e-01 
9.763761e-01 
9.534095e-01 
9.308439e-01 
9.087046e-01 
8.870183e-01 
8.658133e-01 
8.451193e-01 
8.249681e-01 
8.053935e-01 
7.864314e-01 
7.681197e-01 
7.504985e-01 
7.336100e-01 
7.174980e-01 
7.022084e-01 
6.877885e-01 
6.742868e-01 
6.617533e-01 
6.502386e-01 
6.397938e-01 
6.304702e-01 
6.223184e-01 
6.153889e-01 
6.097322e-01 
6.053998e-01 
6.024373e-01 
6.009310e-01 
6.018302e-01 
6.046768e-01 
6.091126e-01 
6.149921e-01 
6.222248e-01 
6.307386e-01 
6.404686e-01 
6.513529e-01 
6.633316e-01 
6.763464e-01 
6.903407e-01 
7.052598e-01 
7.210510e-01 
7.376638e-01 
7.550473e-01 
7.731549e-01 
7.919438e-01 
8.113737e-01 
8.314064e-01 
8.520063e-01 
8.731395e-01 
8.947745e-01 
9.168815e-01 
9.394327e-01 
9.624022e-01 
9.857655e-01 
1.009500e+00 
1.033584e+00 
1.057998e+00 
1.082723e+00 
1.107742e+00 
1.133039e+00 
1.158597e+00 
1.184404e+00 
1.026710e+00 
1.002346e+00 
9.782540e-01 
9.544985e-01 
9.311102e-01 
9.081136e-01 
8.855337e-01 
8.633978e-01 
8.417348e-01 
8.205757e-01 
7.999532e-01 
7.799025e-01 
7.604611e-01 
7.416686e-01 
7.235671e-01 
7.062010e-01 
6.896168e-01 
6.738629e-01 
6.589900e-01 
6.450501e-01 
6.320973e-01 
6.201865e-01 
6.093736e-01 
5.997148e-01 
5.912662e-01 
5.840829e-01 
5.782203e-01 
5.737343e-01 
5.706773e-01 
5.691419e-01 
5.701457e-01 
5.731449e-01 
5.777817e-01 
5.839095e-01 
5.914351e-01 
6.002822e-01 
6.103808e-01 
6.216641e-01 
6.340670e-01 
6.475265e-01 
6.619816e-01 
6.773734e-01 
6.936457e-01 
7.107447e-01 
7.286167e-01 
7.472130e-01 
7.664887e-01 
7.864018e-01 
8.069127e-01 
8.279845e-01 
8.495823e-01 
8.716738e-01 
8.942287e-01 
9.172186e-01 
9.406172e-01 
9.643998e-01 
9.885436e-01 
1.013027e+00 
1.037830e+00 
1.062935e+00 
1.088323e+00 
1.113978e+00 
1.139887e+00 
1.166033e+00 
1.006528e+00 
9.817630e-01 
9.572605e-01 
9.330857e-01 
9.092680e-01 
8.858316e-01 
8.628015e-01 
8.402051e-01 
8.180719e-01 
7.964340e-01 
7.753252e-01 
7.547821e-01 
7.348436e-01 
7.155510e-01 
6.969486e-01 
6.790827e-01 
6.620025e-01 
6.457595e-01 
6.304075e-01 
6.160026e-01 
6.026032e-01 
5.902692e-01 
5.790618e-01 
5.690429e-01 
5.602744e-01 
5.528174e-01 
5.467324e-01 
5.420801e-01 
5.389206e-01 
5.373533e-01 
5.384672e-01 
5.416279e-01 
5.464795e-01 
5.528741e-01 
5.607148e-01 
5.699199e-01 
5.804139e-01 
5.921238e-01 
6.049789e-01 
6.189108e-01 
6.338536e-01 
6.497442e-01 
6.665224e-01 
6.841310e-01 
7.025134e-01 
7.216187e-01 
7.414000e-01 
7.618134e-01 
7.828180e-01 
8.043757e-01 
8.264508e-01 
8.490101e-01 
8.720229e-01 
8.954603e-01 
9.192958e-01 
9.435045e-01 
9.680634e-01 
9.929511e-01 
1.018148e+00 
1.043635e+00 
1.069395e+00 
1.095412e+00 
1.121672e+00 
1.148159e+00 
9.868489e-01 
9.616784e-01 
9.367616e-01 
9.121617e-01 
8.879076e-01 
8.640236e-01 
8.405344e-01 
8.174673e-01 
7.948525e-01 
7.727228e-01 
7.511132e-01 
7.300616e-01 
7.096081e-01 
6.897960e-01 
6.706712e-01 
6.522825e-01 
6.346814e-01 
6.179226e-01 
6.020635e-01 
5.871646e-01 
5.732889e-01 
5.605018e-01 
5.488707e-01 
5.384640e-01 
5.293501e-01 
5.215967e-01 
5.152707e-01 
5.104379e-01 
5.071670e-01 
5.055648e-01 
5.067950e-01 
5.101274e-01 
5.152094e-01 
5.218912e-01 
5.300712e-01 
5.396616e-01 
5.505798e-01 
5.627460e-01 
5.760832e-01 
5.905169e-01 
6.059759e-01 
6.223923e-01 
6.397021e-01 
6.578440e-01 
6.767589e-01 
6.963934e-01 
7.166986e-01 
7.376290e-01 
7.591422e-01 
7.811992e-01 
8.037633e-01 
8.268008e-01 
8.502803e-01 
8.741730e-01 
8.984519e-01 
9.230922e-01 
9.480707e-01 
9.733663e-01 
9.989591e-01 
1.024831e+00 
1.050964e+00 
1.077344e+00 
1.103955e+00 
1.130784e+00 
9.676994e-01 
9.421210e-01 
9.167860e-01 
8.917560e-01 
8.670595e-01 
8.427204e-01 
8.187637e-01 
7.952165e-01 
7.721093e-01 
7.494753e-01 
7.273508e-01 
7.057745e-01 
6.847883e-01 
6.644367e-01 
6.447674e-01 
6.258314e-01 
6.076830e-01 
5.903799e-01 
5.739836e-01 
5.585590e-01 
5.441746e-01 
5.309018e-01 
5.188148e-01 
5.079891e-01 
4.985010e-01 
4.904259e-01 
4.838377e-01 
4.788088e-01 
4.754163e-01 
4.737762e-01 
4.751295e-01 
4.786453e-01 
4.839755e-01 
4.909678e-01 
4.995147e-01 
5.095207e-01 
5.208953e-01 
5.335507e-01 
5.474026e-01 
5.623699e-01 
5.783755e-01 
5.953466e-01 
6.132147e-01 
6.319148e-01 
6.513848e-01 
6.715690e-01 
6.924166e-01 
7.138804e-01 
7.359168e-01 
7.584858e-01 
7.815499e-01 
8.050751e-01 
8.290296e-01 
8.533842e-01 
8.781121e-01 
9.031883e-01 
9.285900e-01 
9.542960e-01 
9.802868e-01 
1.006544e+00 
1.033052e+00 
1.059794e+00 
1.086756e+00 
1.113925e+00 
9.491104e-01 
9.231222e-01 
8.973658e-01 
8.719015e-01 
8.467570e-01 
8.219562e-01 
7.975242e-01 
7.734881e-01 
7.498782e-01 
7.267282e-01 
7.040748e-01 
6.819581e-01 
6.604209e-01 
6.395092e-01 
6.192724e-01 
5.997637e-01 
5.810399e-01 
5.631623e-01 
5.461963e-01 
5.302119e-01 
5.152834e-01 
5.014891e-01 
4.889105e-01 
4.776315e-01 
4.677370e-01 
4.593113e-01 
4.524369e-01 
4.471941e-01 
4.436688e-01 
4.419874e-01 
4.434711e-01 
4.471834e-01 
4.527821e-01 
4.601116e-01 
4.690567e-01 
4.795127e-01 
4.913796e-01 
5.045606e-01 
5.189629e-01 
5.344983e-01 
5.510833e-01 
5.686397e-01 
5.870944e-01 
6.063783e-01 
6.264267e-01 
6.471815e-01 
6.685900e-01 
6.906036e-01 
7.131775e-01 
7.362706e-01 
7.598453e-01 
7.838669e-01 
8.083035e-01 
8.331259e-01 
8.583073e-01 
8.838229e-01 
9.096501e-01 
9.357679e-01 
9.621572e-01 
9.888002e-01 
1.015681e+00 
1.042783e+00 
1.070095e+00 
1.097602e+00 
9.311142e-01 
9.047126e-01 
8.785319e-01 
8.526297e-01 
8.270327e-01 
8.017646e-01 
7.768502e-01 
7.523169e-01 
7.281949e-01 
7.045177e-01 
6.813223e-01 
6.586495e-01 
6.365433e-01 
6.150507e-01 
5.942229e-01 
5.741150e-01 
5.547866e-01 
5.363025e-01 
5.187325e-01 
5.021519e-01 
4.866414e-01 
4.722865e-01 
4.591772e-01 
4.474066e-01 
4.370695e-01 
4.282608e-01 
4.210732e-01 
4.155963e-01 
4.119251e-01 
4.101988e-01 
4.118204e-01 
4.157434e-01 
4.216339e-01 
4.293311e-01 
4.387101e-01 
4.496550e-01 
4.620543e-01 
4.758010e-01 
4.907929e-01 
5.069338e-01 
5.241332e-01 
5.423073e-01 
5.613781e-01 
5.812726e-01 
6.019232e-01 
6.232699e-01 
6.452579e-01 
6.678373e-01 
6.909625e-01 
7.145916e-01 
7.386866e-01 
7.632126e-01 
7.881377e-01 
8.134328e-01 
8.390713e-01 
8.650287e-01 
8.912828e-01 
9.178129e-01 
9.446004e-01 
9.716280e-01 
9.988797e-01 
1.026341e+00 
1.053999e+00 
1.081840e+00 
9.137237e-01 
8.869055e-01 
8.602993e-01 
8.339577e-01 
8.079058e-01 
7.821665e-01 
7.567648e-01 
7.317280e-01 
7.070861e-01 
6.828722e-01 
6.591232e-01 
6.358804e-01 
6.131883e-01 
5.910951e-01 
5.696533e-01 
5.489200e-01 
5.289576e-01 
5.098345e-01 
4.916251e-01 
4.744102e-01 
4.582773e-01 
4.433199e-01 
4.296371e-01 
4.173325e-01 
4.065125e-01 
3.972841e-01 
3.897522e-01 
3.840181e-01 
3.801865e-01 
3.784115e-01 
3.801778e-01 
3.843276e-01 
3.905365e-01 
3.986365e-01 
4.084900e-01 
4.199672e-01 
4.329436e-01 
4.473000e-01 
4.629240e-01 
4.797104e-01 
4.975613e-01 
5.163869e-01 
5.361043e-01 
5.566364e-01 
5.779133e-01 
5.998726e-01 
6.224582e-01 
6.456188e-01 
6.693082e-01 
6.934840e-01 
7.181080e-01 
7.431454e-01 
7.685644e-01 
7.943361e-01 
8.204343e-01 
8.468351e-01 
8.735164e-01 
9.004584e-01 
9.276428e-01 
9.550529e-01 
9.826735e-01 
1.010490e+00 
1.038491e+00 
1.066663e+00 
8.969050e-01 
8.696891e-01 
8.426644e-01 
8.158876e-01 
7.893834e-01 
7.631745e-01 
7.372853e-01 
7.117430e-01 
6.865772e-01 
6.618208e-01 
6.375103e-01 
6.136864e-01 
5.903943e-01 
5.676830e-01 
5.456064e-01 
5.242234e-01 
5.035992e-01 
4.838055e-01 
4.649213e-01 
4.470332e-01 
4.302356e-01 
4.146307e-01 
4.003276e-01 
3.874417e-01 
3.760927e-01 
3.664020e-01 
3.584894e-01 
3.524701e-01 
3.484602e-01 
3.466333e-01 
3.485305e-01 
3.529217e-01 
3.594786e-01 
3.680209e-01 
3.783947e-01 
3.904533e-01 
4.040565e-01 
4.190714e-01 
4.353739e-01 
4.528489e-01 
4.713910e-01 
4.909038e-01 
5.112993e-01 
5.324966e-01 
5.544235e-01 
5.770157e-01 
6.002159e-01 
6.239720e-01 
6.482372e-01 
6.729690e-01 
6.981293e-01 
7.236832e-01 
7.495997e-01 
7.758501e-01 
8.024088e-01 
8.292524e-01 
8.563596e-01 
8.837112e-01 
9.112896e-01 
9.390786e-01 
9.670637e-01 
9.952314e-01 
1.023570e+00 
1.052067e+00 
8.808256e-01 
8.532016e-01 
8.257571e-01 
7.985432e-01 
7.715841e-01 
7.449018e-01 
7.185203e-01 
6.924661e-01 
6.667684e-01 
6.414595e-01 
6.165752e-01 
5.921555e-01 
5.682454e-01 
5.448945e-01 
5.221576e-01 
5.000954e-01 
4.787757e-01 
4.582734e-01 
4.386722e-01 
4.200645e-01 
4.025521e-01 
3.862462e-01 
3.712673e-01 
3.577442e-01 
3.458119e-01 
3.356092e-01 
3.272737e-01 
3.209378e-01 
3.167315e-01 
3.148481e-01 
3.169022e-01 
3.215626e-01 
3.285073e-01 
3.375410e-01 
3.484894e-01 
3.611857e-01 
3.754712e-01 
3.911974e-01 
4.082272e-01 
4.264351e-01 
4.457074e-01 
4.659414e-01 
4.870440e-01 
5.089306e-01 
5.315274e-01 
5.547688e-01 
5.785961e-01 
6.029570e-01 
6.278042e-01 
6.530957e-01 
6.787934e-01 
7.048633e-01 
7.312745e-01 
7.579994e-01 
7.850130e-01 
8.122926e-01 
8.398178e-01 
8.675701e-01 
8.955326e-01 
9.236901e-01 
9.520286e-01 
9.805354e-01 
1.009199e+00 
1.038009e+00 
8.654637e-01 
8.374395e-01 
8.095790e-01 
7.819314e-01 
7.545198e-01 
7.273655e-01 
7.004915e-01 
6.739236e-01 
6.476902e-01 
6.218227e-01 
5.963561e-01 
5.713294e-01 
5.467868e-01 
5.227779e-01 
4.993583e-01 
4.765903e-01 
4.545435e-01 
4.332963e-01 
4.129364e-01 
3.935622e-01 
3.752828e-01 
3.582193e-01 
3.425043e-01 
3.282816e-01 
3.157045e-01 
3.049320e-01 
2.961239e-01 
2.894336e-01 
2.850084e-01 
2.830644e-01 
2.852831e-01 
2.902394e-01 
2.976170e-01 
3.071995e-01 
3.187866e-01 
3.321863e-01 
3.472185e-01 
3.637169e-01 
3.815300e-01 
4.005212e-01 
4.205685e-01 
4.415626e-01 
4.634056e-01 
4.860104e-01 
5.093015e-01 
5.332121e-01 
5.576832e-01 
5.826620e-01 
6.081019e-01 
6.339611e-01 
6.602023e-01 
6.867921e-01 
7.137008e-01 
7.409014e-01 
7.683701e-01 
7.960850e-01 
8.240266e-01 
8.521775e-01 
8.805215e-01 
9.090443e-01 
9.377327e-01 
9.665748e-01 
9.955598e-01 
1.024678e+00 
8.508418e-01 
8.224247e-01 
7.941551e-01 
7.660801e-01 
7.382214e-01 
7.105994e-01 
6.832361e-01 
6.561558e-01 
6.293858e-01 
6.029566e-01 
5.769020e-01 
5.512600e-01 
5.260734e-01 
5.013912e-01 
4.772694e-01 
4.537710e-01 
4.309673e-01 
4.089395e-01 
3.877789e-01 
3.675894e-01 
3.484877e-01 
3.306047e-01 
3.140866e-01 
2.990939e-01 
2.858008e-01 
2.743912e-01 
2.650517e-01 
2.579621e-01 
2.532913e-01 
2.512828e-01 
2.536741e-01 
2.589581e-01 
2.668224e-01 
2.770215e-01 
2.893208e-01 
3.034982e-01 
3.193482e-01 
3.366842e-01 
3.553394e-01 
3.751657e-01 
3.960323e-01 
4.178239e-01 
4.404383e-01 
4.637868e-01 
4.877926e-01 
5.123885e-01 
5.375152e-01 
5.631207e-01 
5.891588e-01 
6.155887e-01 
6.423743e-01 
6.694832e-01 
6.968869e-01 
7.245598e-01 
7.524788e-01 
7.806236e-01 
8.089756e-01 
8.375184e-01 
8.662370e-01 
8.951178e-01 
9.241487e-01 
9.533187e-01 
9.826175e-01 
1.012036e+00 
8.369943e-01 
8.081944e-01 
7.795252e-01 
7.510317e-01 
7.227341e-01 
6.946515e-01 
6.668045e-01 
6.392159e-01 
6.119117e-01 
5.849207e-01 
5.582753e-01 
5.320123e-01 
5.061732e-01 
4.808057e-01 
4.559648e-01 
4.317139e-01 
4.081253e-01 
3.852818e-01 
3.632781e-01 
3.422228e-01 
3.222397e-01 
3.034701e-01 
2.860740e-01 
2.702311e-01 
2.561396e-01 
2.440132e-01 
2.340720e-01 
2.265295e-01 
2.215809e-01 
2.195037e-01 
2.220760e-01 
2.277263e-01 
2.361433e-01 
2.470399e-01 
2.601381e-01 
2.751783e-01 
2.919256e-01 
3.101710e-01 
3.297310e-01 
3.504457e-01 
3.721765e-01 
3.948022e-01 
4.182176e-01 
4.423331e-01 
4.670714e-01 
4.923654e-01 
5.181565e-01 
5.443937e-01 
5.710322e-01 
5.980324e-01 
6.253597e-01 
6.529833e-01 
6.808762e-01 
7.090141e-01 
7.373757e-01 
7.659416e-01 
7.946948e-01 
8.236200e-01 
8.527033e-01 
8.819322e-01 
9.112954e-01 
9.407830e-01 
9.703856e-01 
1.000095e+00 
8.239562e-01 
7.947868e-01 
7.657302e-01 
7.368298e-01 
7.081044e-01 
6.795713e-01 
6.512495e-01 
6.231602e-01 
5.953274e-01 
5.677782e-01 
5.405432e-01 
5.136575e-01 
4.871610e-01 
4.610997e-01 
4.355270e-01 
4.105051e-01 
3.861063e-01 
3.624142e-01 
3.395257e-01 
3.175530e-01 
2.966266e-01 
2.768976e-01 
2.585408e-01 
2.417562e-01 
2.267701e-01 
2.138316e-01 
2.032037e-01 
1.951429e-01 
1.898781e-01 
1.877272e-01 
1.904895e-01 
1.965537e-01 
2.056051e-01 
2.172975e-01 
2.312968e-01 
2.472978e-01 
2.650314e-01 
2.842638e-01 
3.047947e-01 
3.264527e-01 
3.490918e-01 
3.725864e-01 
3.968300e-01 
4.217327e-01 
4.472177e-01 
4.732188e-01 
4.996791e-01 
5.265492e-01 
5.537860e-01 
5.813522e-01 
6.092150e-01 
6.373455e-01 
6.657184e-01 
6.943112e-01 
7.231042e-01 
7.520797e-01 
7.812220e-01 
8.105171e-01 
8.399524e-01 
8.695167e-01 
8.991998e-01 
9.289927e-01 
9.588870e-01 
9.888750e-01 
8.117679e-01 
7.822434e-01 
7.528140e-01 
7.235212e-01 
6.943819e-01 
6.654118e-01 
6.366277e-01 
6.080489e-01 
5.796973e-01 
5.515978e-01 
5.237790e-01 
4.962737e-01 
4.691198e-01 
4.423611e-01 
4.160485e-01 
3.902419e-01 
3.650120e-01 
3.404418e-01 
3.166287e-01 
2.936877e-01 
2.717542e-01 
2.509884e-01 
2.315794e-01 
2.137492e-01 
1.977555e-01 
1.838906e-01 
1.724714e-01 
1.638119e-01 
1.581837e-01 
1.559540e-01 
1.589155e-01 
1.654533e-01 
1.752418e-01 
1.878506e-01 
2.028723e-01 
2.199468e-01 
2.387656e-01 
2.590687e-01 
2.806389e-01 
3.032947e-01 
3.268840e-01 
3.512790e-01 
3.763734e-01 
4.020784e-01 
4.283189e-01 
4.550309e-01 
4.821598e-01 
5.096588e-01 
5.374875e-01 
5.656108e-01 
5.939985e-01 
6.226240e-01 
6.514640e-01 
6.804982e-01 
7.097085e-01 
7.390790e-01 
7.685957e-01 
7.982459e-01 
8.280184e-01 
8.579033e-01 
8.878915e-01 
9.179750e-01 
9.481465e-01 
9.783993e-01 
8.004706e-01 
7.706012e-01 
7.408153e-01 
7.111473e-01 
6.816115e-01 
6.522212e-01 
6.229911e-01 
5.939384e-01 
5.650826e-01 
5.364462e-01 
5.080551e-01 
4.799396e-01 
4.521345e-01 
4.246810e-01 
3.976268e-01 
3.710284e-01 
3.449530e-01 
3.194810e-01 
2.947088e-01 
2.707516e-01 
2.477479e-01 
2.258648e-01 
2.053047e-01 
1.863116e-01 
1.691780e-01 
1.542477e-01 
1.419075e-01 
1.325489e-01 
1.264991e-01 
1.241854e-01 
1.273551e-01 
1.344422e-01 
1.450995e-01 
1.587741e-01 
1.749634e-01 
1.932404e-01 
2.132530e-01 
2.347146e-01 
2.573926e-01 
2.810973e-01 
3.056737e-01 
3.309944e-01 
3.569556e-01 
3.834710e-01 
4.104689e-01 
4.378886e-01 
4.656792e-01 
4.937971e-01 
5.222053e-01 
5.508717e-01 
5.797689e-01 
6.088731e-01 
6.381632e-01 
6.676214e-01 
6.972314e-01 
7.269794e-01 
7.568528e-01 
7.868407e-01 
8.169333e-01 
8.471218e-01 
8.773985e-01 
9.077564e-01 
9.381890e-01 
9.686908e-01 
7.900055e-01 
7.598294e-01 
7.297124e-01 
6.996938e-01 
6.697859e-01 
6.400000e-01 
6.103486e-01 
5.808464e-01 
5.515103e-01 
5.223599e-01 
4.934184e-01 
4.647124e-01 
4.362737e-01 
4.081392e-01 
3.803527e-01 
3.529664e-01 
3.260425e-01 
2.996565e-01 
2.739007e-01 
2.488879e-01 
2.247565e-01 
2.016774e-01 
1.798628e-01 
1.595772e-01 
1.411496e-01 
1.249842e-01 
1.115582e-01 
1.013724e-01 
9.482707e-02 
9.242519e-02 
9.580166e-02 
1.035354e-01 
1.152351e-01 
1.301639e-01 
1.476947e-01 
1.673211e-01 
1.886447e-01 
2.113540e-01 
2.352047e-01 
2.600032e-01 
2.855954e-01 
3.118584e-01 
3.386929e-01 
3.660177e-01 
3.937660e-01 
4.218822e-01 
4.503198e-01 
4.790396e-01 
5.080084e-01 
5.371979e-01 
5.665839e-01 
5.961455e-01 
6.258645e-01 
6.557252e-01 
6.857138e-01 
7.158183e-01 
7.460280e-01 
7.763336e-01 
8.067267e-01 
8.371999e-01 
8.677466e-01 
8.983609e-01 
9.290375e-01 
9.597715e-01 
7.805748e-01 
7.500964e-01 
7.196660e-01 
6.893161e-01 
6.590567e-01 
6.288968e-01 
5.988466e-01 
5.689181e-01 
5.391251e-01 
5.094844e-01 
4.800156e-01 
4.507416e-01 
4.216899e-01 
3.928928e-01 
3.643889e-01 
3.362245e-01 
3.084557e-01 
2.811508e-01 
2.543950e-01 
2.282946e-01 
2.029832e-01 
1.786302e-01 
1.554522e-01 
1.337291e-01 
1.138243e-01 
9.620981e-02 
8.148172e-02 
7.030075e-02 
6.316429e-02 
6.066817e-02 
6.426771e-02 
7.278061e-02 
8.575895e-02 
1.021817e-01 
1.212612e-01 
1.423990e-01 
1.651521e-01 
1.891908e-01 
2.142665e-01 
2.401887e-01 
2.668104e-01 
2.940167e-01 
3.217159e-01 
3.498345e-01 
3.783125e-01 
4.071006e-01 
4.361581e-01 
4.654509e-01 
4.949505e-01 
5.246324e-01 
5.544763e-01 
5.844642e-01 
6.145811e-01 
6.448138e-01 
6.751507e-01 
7.055818e-01 
7.360983e-01 
7.666924e-01 
7.973574e-01 
8.280871e-01 
8.588761e-01 
8.897197e-01 
9.206134e-01 
9.515535e-01 
7.721686e-01 
7.414185e-01 
7.107009e-01 
6.800460e-01 
6.494623e-01 
6.189564e-01 
5.885362e-01 
5.582110e-01 
5.279920e-01 
4.978925e-01 
4.679285e-01 
4.381189e-01 
4.084862e-01 
3.790573e-01 
3.498644e-01 
3.209469e-01 
2.923525e-01 
2.641410e-01 
2.363868e-01 
2.091850e-01 
1.826586e-01 
1.569675e-01 
1.323238e-01 
1.090118e-01 
8.742034e-02 
6.808904e-02 
5.176797e-02 
3.936569e-02 
3.151366e-02 
2.891802e-02 
3.274839e-02 
4.221986e-02 
5.680966e-02 
7.503796e-02 
9.591366e-02 
1.187382e-01 
1.430358e-01 
1.684735e-01 
1.948109e-01 
2.218710e-01 
2.495206e-01 
2.776571e-01 
3.062005e-01 
3.350871e-01 
3.642659e-01 
3.936952e-01 
4.233410e-01 
4.531750e-01 
4.831737e-01 
5.133173e-01 
5.435890e-01 
5.739745e-01 
6.044615e-01 
6.350395e-01 
6.656992e-01 
6.964327e-01 
7.272330e-01 
7.580939e-01 
7.890101e-01 
8.199766e-01 
8.509892e-01 
8.820442e-01 
9.131381e-01 
9.442678e-01 
7.648031e-01 
7.338080e-01 
7.028315e-01 
6.719020e-01 
6.410259e-01 
6.102079e-01 
5.794534e-01 
5.487691e-01 
5.181634e-01 
4.876463e-01 
4.572300e-01 
4.269291e-01 
3.967609e-01 
3.667462e-01 
3.369102e-01 
3.072838e-01 
2.779053e-01 
2.488227e-01 
2.200973e-01 
1.918085e-01 
1.640610e-01 
1.369957e-01 
1.108057e-01 
8.576205e-02 
6.225483e-02 
4.086776e-02 
2.254606e-02 
8.607257e-03 
-1.207439e-04 
-2.845116e-03 
1.243508e-03 
1.192854e-02 
2.862365e-02 
4.905969e-02 
7.201370e-02 
9.669089e-02 
1.226193e-01 
1.494907e-01 
1.770924e-01 
2.052724e-01 
2.339185e-01 
2.629460e-01 
2.922894e-01 
3.218976e-01 
3.517297e-01 
3.817530e-01 
4.119407e-01 
4.422708e-01 
4.727253e-01 
5.032887e-01 
5.339484e-01 
5.646933e-01 
5.955141e-01 
6.264029e-01 
6.573528e-01 
6.883576e-01 
7.194122e-01 
7.505119e-01 
7.816526e-01 
8.128308e-01 
8.440432e-01 
8.752870e-01 
9.065597e-01 
9.378590e-01 
7.585278e-01 
7.273170e-01 
6.961121e-01 
6.649405e-01 
6.338067e-01 
6.027135e-01 
5.716642e-01 
5.406632e-01 
5.097161e-01 
4.788299e-01 
4.480129e-01 
4.172754e-01 
3.866296e-01 
3.560901e-01 
3.256747e-01 
2.954052e-01 
2.653089e-01 
2.354206e-01 
2.057854e-01 
1.764626e-01 
1.475320e-01 
1.191039e-01 
9.133542e-02 
6.445664e-02 
3.881327e-02 
1.494821e-02 
-5.377786e-03 
-2.062963e-02 
-3.043114e-02 
-3.401256e-02 
-2.812303e-02 
-1.584135e-02 
1.980653e-03 
2.476977e-02 
5.009390e-02 
7.673226e-02 
1.043123e-01 
1.325932e-01 
1.614110e-01 
1.906499e-01 
2.202253e-01 
2.500742e-01 
2.801482e-01 
3.104100e-01 
3.408300e-01 
3.713847e-01 
4.020548e-01 
4.328248e-01 
4.636817e-01 
4.946149e-01 
5.256151e-01 
5.566748e-01 
5.877874e-01 
6.189474e-01 
6.501498e-01 
6.813906e-01 
7.126659e-01 
7.439727e-01 
7.753080e-01 
8.066694e-01 
8.380547e-01 
8.694618e-01 
9.008890e-01 
9.323348e-01 
7.533970e-01 
7.220015e-01 
6.905997e-01 
6.592198e-01 
6.278648e-01 
5.965361e-01 
5.652350e-01 
5.339640e-01 
5.027261e-01 
4.715257e-01 
4.403678e-01 
4.092588e-01 
3.782060e-01 
3.472184e-01 
3.163066e-01 
2.854836e-01 
2.547659e-01 
2.241741e-01 
1.937356e-01 
1.634864e-01 
1.334763e-01 
1.037755e-01 
7.448726e-02 
4.577074e-02 
1.788847e-02 
-7.851314e-03 
-2.946215e-02 
-4.705347e-02 
-5.958931e-02 
-6.451511e-02 
-5.597234e-02 
-4.074356e-02 
-2.106193e-02 
3.341417e-03 
3.095451e-02 
5.947280e-02 
8.860025e-02 
1.181762e-01 
1.480932e-01 
1.782761e-01 
2.086706e-01 
2.392367e-01 
2.699438e-01 
3.007683e-01 
3.316918e-01 
3.626995e-01 
3.937795e-01 
4.249220e-01 
4.561189e-01 
4.873636e-01 
5.186504e-01 
5.499745e-01 
5.813318e-01 
6.127189e-01 
6.441326e-01 
6.755705e-01 
7.070301e-01 
7.385096e-01 
7.700071e-01 
8.015210e-01 
8.330500e-01 
8.645929e-01 
8.961485e-01 
9.277159e-01 
7.494881e-01 
7.179379e-01 
6.863702e-01 
6.548155e-01 
6.232761e-01 
5.917521e-01 
5.602436e-01 
5.287512e-01 
4.972764e-01 
4.658211e-01 
4.343881e-01 
4.029804e-01 
3.716017e-01 
3.402563e-01 