# vtk DataFile Version 2.0 
Quadtree Mesh 
ASCII 
DATASET UNSTRUCTURED_GRID 
POINTS 4096 double 
-1.000000e+00 -1.000000e+00 0.000000e+00
-9.682540e-01 -1.000000e+00 0.000000e+00
-9.365079e-01 -1.000000e+00 0.000000e+00
-9.047619e-01 -1.000000e+00 0.000000e+00
-8.730159e-01 -1.000000e+00 0.000000e+00
-8.412698e-01 -1.000000e+00 0.000000e+00
-8.095238e-01 -1.000000e+00 0.000000e+00
-7.777778e-01 -1.000000e+00 0.000000e+00
-7.460317e-01 -1.000000e+00 0.000000e+00
-7.142857e-01 -1.000000e+00 0.000000e+00
-6.825397e-01 -1.000000e+00 0.000000e+00
-6.507937e-01 -1.000000e+00 0.000000e+00
-6.190476e-01 -1.000000e+00 0.000000e+00
-5.873016e-01 -1.000000e+00 0.000000e+00
-5.555556e-01 -1.000000e+00 0.000000e+00
-5.238095e-01 -1.000000e+00 0.000000e+00
-4.920635e-01 -1.000000e+00 0.000000e+00
-4.603175e-01 -1.000000e+00 0.000000e+00
-4.285714e-01 -1.000000e+00 0.000000e+00
-3.968254e-01 -1.000000e+00 0.000000e+00
-3.650794e-01 -1.000000e+00 0.000000e+00
-3.333333e-01 -1.000000e+00 0.000000e+00
-3.015873e-01 -1.000000e+00 0.000000e+00
-2.698413e-01 -1.000000e+00 0.000000e+00
-2.380952e-01 -1.000000e+00 0.000000e+00
-2.063492e-01 -1.000000e+00 0.000000e+00
-1.746032e-01 -1.000000e+00 0.000000e+00
-1.428571e-01 -1.000000e+00 0.000000e+00
-1.111111e-01 -1.000000e+00 0.000000e+00
-7.936508e-02 -1.000000e+00 0.000000e+00
-4.761905e-02 -1.000000e+00 0.000000e+00
-1.587302e-02 -1.000000e+00 0.000000e+00
1.587302e-02 -1.000000e+00 0.000000e+00
4.761905e-02 -1.000000e+00 0.000000e+00
7.936508e-02 -1.000000e+00 0.000000e+00
1.111111e-01 -1.000000e+00 0.000000e+00
1.428571e-01 -1.000000e+00 0.000000e+00
1.746032e-01 -1.000000e+00 0.000000e+00
2.063492e-01 -1.000000e+00 0.000000e+00
2.380952e-01 -1.000000e+00 0.000000e+00
2.698413e-01 -1.000000e+00 0.000000e+00
3.015873e-01 -1.000000e+00 0.000000e+00
3.333333e-01 -1.000000e+00 0.000000e+00
3.650794e-01 -1.000000e+00 0.000000e+00
3.968254e-01 -1.000000e+00 0.000000e+00
4.285714e-01 -1.000000e+00 0.000000e+00
4.603175e-01 -1.000000e+00 0.000000e+00
4.920635e-01 -1.000000e+00 0.000000e+00
5.238095e-01 -1.000000e+00 0.000000e+00
5.555556e-01 -1.000000e+00 0.000000e+00
5.873016e-01 -1.000000e+00 0.000000e+00
6.190476e-01 -1.000000e+00 0.000000e+00
6.507937e-01 -1.000000e+00 0.000000e+00
6.825397e-01 -1.000000e+00 0.000000e+00
7.142857e-01 -1.000000e+00 0.000000e+00
7.460317e-01 -1.000000e+00 0.000000e+00
7.777778e-01 -1.000000e+00 0.000000e+00
8.095238e-01 -1.000000e+00 0.000000e+00
8.412698e-01 -1.000000e+00 0.000000e+00
8.730159e-01 -1.000000e+00 0.000000e+00
9.047619e-01 -1.000000e+00 0.000000e+00
9.365079e-01 -1.000000e+00 0.000000e+00
9.682540e-01 -1.000000e+00 0.000000e+00
1.000000e+00 -1.000000e+00 0.000000e+00
-1.000000e+00 -9.682540e-01 0.000000e+00
-9.682540e-01 -9.682540e-01 0.000000e+00
-9.365079e-01 -9.682540e-01 0.000000e+00
-9.047619e-01 -9.682540e-01 0.000000e+00
-8.730159e-01 -9.682540e-01 0.000000e+00
-8.412698e-01 -9.682540e-01 0.000000e+00
-8.095238e-01 -9.682540e-01 0.000000e+00
-7.777778e-01 -9.682540e-01 0.000000e+00
-7.460317e-01 -9.682540e-01 0.000000e+00
-7.142857e-01 -9.682540e-01 0.000000e+00
-6.825397e-01 -9.682540e-01 0.000000e+00
-6.507937e-01 -9.682540e-01 0.000000e+00
-6.190476e-01 -9.682540e-01 0.000000e+00
-5.873016e-01 -9.682540e-01 0.000000e+00
-5.555556e-01 -9.682540e-01 0.000000e+00
-5.238095e-01 -9.682540e-01 0.000000e+00
-4.920635e-01 -9.682540e-01 0.000000e+00
-4.603175e-01 -9.682540e-01 0.000000e+00
-4.285714e-01 -9.682540e-01 0.000000e+00
-3.968254e-01 -9.682540e-01 0.000000e+00
-3.650794e-01 -9.682540e-01 0.000000e+00
-3.333333e-01 -9.682540e-01 0.000000e+00
-3.015873e-01 -9.682540e-01 0.000000e+00
-2.698413e-01 -9.682540e-01 0.000000e+00
-2.380952e-01 -9.682540e-01 0.000000e+00
-2.063492e-01 -9.682540e-01 0.000000e+00
-1.746032e-01 -9.682540e-01 0.000000e+00
-1.428571e-01 -9.682540e-01 0.000000e+00
-1.111111e-01 -9.682540e-01 0.000000e+00
-7.936508e-02 -9.682540e-01 0.000000e+00
-4.761905e-02 -9.682540e-01 0.000000e+00
-1.587302e-02 -9.682540e-01 0.000000e+00
1.587302e-02 -9.682540e-01 0.000000e+00
4.761905e-02 -9.682540e-01 0.000000e+00
7.936508e-02 -9.682540e-01 0.000000e+00
1.111111e-01 -9.682540e-01 0.000000e+00
1.428571e-01 -9.682540e-01 0.000000e+00
1.746032e-01 -9.682540e-01 0.000000e+00
2.063492e-01 -9.682540e-01 0.000000e+00
2.380952e-01 -9.682540e-01 0.000000e+00
2.698413e-01 -9.682540e-01 0.000000e+00
3.015873e-01 -9.682540e-01 0.000000e+00
3.333333e-01 -9.682540e-01 0.000000e+00
3.650794e-01 -9.682540e-01 0.000000e+00
3.968254e-01 -9.682540e-01 0.000000e+00
4.285714e-01 -9.682540e-01 0.000000e+00
4.603175e-01 -9.682540e-01 0.000000e+00
4.920635e-01 -9.682540e-01 0.000000e+00
5.238095e-01 -9.682540e-01 0.000000e+00
5.555556e-01 -9.682540e-01 0.000000e+00
5.873016e-01 -9.682540e-01 0.000000e+00
6.190476e-01 -9.682540e-01 0.000000e+00
6.507937e-01 -9.682540e-01 0.000000e+00
6.825397e-01 -9.682540e-01 0.000000e+00
7.142857e-01 -9.682540e-01 0.000000e+00
7.460317e-01 -9.682540e-01 0.000000e+00
7.777778e-01 -9.682540e-01 0.000000e+00
8.095238e-01 -9.682540e-01 0.000000e+00
8.412698e-01 -9.682540e-01 0.000000e+00
8.730159e-01 -9.682540e-01 0.000000e+00
9.047619e-01 -9.682540e-01 0.000000e+00
9.365079e-01 -9.682540e-01 0.000000e+00
9.682540e-01 -9.682540e-01 0.000000e+00
1.000000e+00 -9.682540e-01 0.000000e+00
-1.000000e+00 -9.365079e-01 0.000000e+00
-9.682540e-01 -9.365079e-01 0.000000e+00
-9.365079e-01 -9.365079e-01 0.000000e+00
-9.047619e-01 -9.365079e-01 0.000000e+00
-8.730159e-01 -9.365079e-01 0.000000e+00
-8.412698e-01 -9.365079e-01 0.000000e+00
-8.095238e-01 -9.365079e-01 0.000000e+00
-7.777778e-01 -9.365079e-01 0.000000e+00
-7.460317e-01 -9.365079e-01 0.000000e+00
-7.142857e-01 -9.365079e-01 0.000000e+00
-6.825397e-01 -9.365079e-01 0.000000e+00
-6.507937e-01 -9.365079e-01 0.000000e+00
-6.190476e-01 -9.365079e-01 0.000000e+00
-5.873016e-01 -9.365079e-01 0.000000e+00
-5.555556e-01 -9.365079e-01 0.000000e+00
-5.238095e-01 -9.365079e-01 0.000000e+00
-4.920635e-01 -9.365079e-01 0.000000e+00
-4.603175e-01 -9.365079e-01 0.000000e+00
-4.285714e-01 -9.365079e-01 0.000000e+00
-3.968254e-01 -9.365079e-01 0.000000e+00
-3.650794e-01 -9.365079e-01 0.000000e+00
-3.333333e-01 -9.365079e-01 0.000000e+00
-3.015873e-01 -9.365079e-01 0.000000e+00
-2.698413e-01 -9.365079e-01 0.000000e+00
-2.380952e-01 -9.365079e-01 0.000000e+00
-2.063492e-01 -9.365079e-01 0.000000e+00
-1.746032e-01 -9.365079e-01 0.000000e+00
-1.428571e-01 -9.365079e-01 0.000000e+00
-1.111111e-01 -9.365079e-01 0.000000e+00
-7.936508e-02 -9.365079e-01 0.000000e+00
-4.761905e-02 -9.365079e-01 0.000000e+00
-1.587302e-02 -9.365079e-01 0.000000e+00
1.587302e-02 -9.365079e-01 0.000000e+00
4.761905e-02 -9.365079e-01 0.000000e+00
7.936508e-02 -9.365079e-01 0.000000e+00
1.111111e-01 -9.365079e-01 0.000000e+00
1.428571e-01 -9.365079e-01 0.000000e+00
1.746032e-01 -9.365079e-01 0.000000e+00
2.063492e-01 -9.365079e-01 0.000000e+00
2.380952e-01 -9.365079e-01 0.000000e+00
2.698413e-01 -9.365079e-01 0.000000e+00
3.015873e-01 -9.365079e-01 0.000000e+00
3.333333e-01 -9.365079e-01 0.000000e+00
3.650794e-01 -9.365079e-01 0.000000e+00
3.968254e-01 -9.365079e-01 0.000000e+00
4.285714e-01 -9.365079e-01 0.000000e+00
4.603175e-01 -9.365079e-01 0.000000e+00
4.920635e-01 -9.365079e-01 0.000000e+00
5.238095e-01 -9.365079e-01 0.000000e+00
5.555556e-01 -9.365079e-01 0.000000e+00
5.873016e-01 -9.365079e-01 0.000000e+00
6.190476e-01 -9.365079e-01 0.000000e+00
6.507937e-01 -9.365079e-01 0.000000e+00
6.825397e-01 -9.365079e-01 0.000000e+00
7.142857e-01 -9.365079e-01 0.000000e+00
7.460317e-01 -9.365079e-01 0.000000e+00
7.777778e-01 -9.365079e-01 0.000000e+00
8.095238e-01 -9.365079e-01 0.000000e+00
8.412698e-01 -9.365079e-01 0.000000e+00
8.730159e-01 -9.365079e-01 0.000000e+00
9.047619e-01 -9.365079e-01 0.000000e+00
9.365079e-01 -9.365079e-01 0.000000e+00
9.682540e-01 -9.365079e-01 0.000000e+00
1.000000e+00 -9.365079e-01 0.000000e+00
-1.000000e+00 -9.047619e-01 0.000000e+00
-9.682540e-01 -9.047619e-01 0.000000e+00
-9.365079e-01 -9.047619e-01 0.000000e+00
-9.047619e-01 -9.047619e-01 0.000000e+00
-8.730159e-01 -9.047619e-01 0.000000e+00
-8.412698e-01 -9.047619e-01 0.000000e+00
-8.095238e-01 -9.047619e-01 0.000000e+00
-7.777778e-01 -9.047619e-01 0.000000e+00
-7.460317e-01 -9.047619e-01 0.000000e+00
-7.142857e-01 -9.047619e-01 0.000000e+00
-6.825397e-01 -9.047619e-01 0.000000e+00
-6.507937e-01 -9.047619e-01 0.000000e+00
-6.190476e-01 -9.047619e-01 0.000000e+00
-5.873016e-01 -9.047619e-01 0.000000e+00
-5.555556e-01 -9.047619e-01 0.000000e+00
-5.238095e-01 -9.047619e-01 0.000000e+00
-4.920635e-01 -9.047619e-01 0.000000e+00
-4.603175e-01 -9.047619e-01 0.000000e+00
-4.285714e-01 -9.047619e-01 0.000000e+00
-3.968254e-01 -9.047619e-01 0.000000e+00
-3.650794e-01 -9.047619e-01 0.000000e+00
-3.333333e-01 -9.047619e-01 0.000000e+00
-3.015873e-01 -9.047619e-01 0.000000e+00
-2.698413e-01 -9.047619e-01 0.000000e+00
-2.380952e-01 -9.047619e-01 0.000000e+00
-2.063492e-01 -9.047619e-01 0.000000e+00
-1.746032e-01 -9.047619e-01 0.000000e+00
-1.428571e-01 -9.047619e-01 0.000000e+00
-1.111111e-01 -9.047619e-01 0.000000e+00
-7.936508e-02 -9.047619e-01 0.000000e+00
-4.761905e-02 -9.047619e-01 0.000000e+00
-1.587302e-02 -9.047619e-01 0.000000e+00
1.587302e-02 -9.047619e-01 0.000000e+00
4.761905e-02 -9.047619e-01 0.000000e+00
7.936508e-02 -9.047619e-01 0.000000e+00
1.111111e-01 -9.047619e-01 0.000000e+00
1.428571e-01 -9.047619e-01 0.000000e+00
1.746032e-01 -9.047619e-01 0.000000e+00
2.063492e-01 -9.047619e-01 0.000000e+00
2.380952e-01 -9.047619e-01 0.000000e+00
2.698413e-01 -9.047619e-01 0.000000e+00
3.015873e-01 -9.047619e-01 0.000000e+00
3.333333e-01 -9.047619e-01 0.000000e+00
3.650794e-01 -9.047619e-01 0.000000e+00
3.968254e-01 -9.047619e-01 0.000000e+00
4.285714e-01 -9.047619e-01 0.000000e+00
4.603175e-01 -9.047619e-01 0.000000e+00
4.920635e-01 -9.047619e-01 0.000000e+00
5.238095e-01 -9.047619e-01 0.000000e+00
5.555556e-01 -9.047619e-01 0.000000e+00
5.873016e-01 -9.047619e-01 0.000000e+00
6.190476e-01 -9.047619e-01 0.000000e+00
[...]
POINT_DATA 4096 
SCALARS concentration double 1 
LOOKUP_TABLE default 
1.485866e+00 
1.463378e+00 
1.441165e+00 
1.419261e+00 
1.397675e+00 
1.376416e+00 
1.355495e+00 
1.334926e+00 
1.314723e+00 
1.294900e+00 
1.275473e+00 
1.256456e+00 
1.237867e+00 
1.219722e+00 
1.202039e+00 
1.184837e+00 
1.168133e+00 
1.151949e+00 
1.136305e+00 
1.121221e+00 
1.106718e+00 
1.092818e+00 
1.079542e+00 
1.066912e+00 
1.054950e+00 
1.043677e+00 
1.033114e+00 
1.023284e+00 
1.014207e+00 
1.005902e+00 
9.983913e-01 
9.916929e-01 
9.858265e-01 
9.808078e-01 
9.766478e-01 
9.733574e-01 
9.709481e-01 
9.694326e-01 
9.688381e-01 
9.694683e-01 
9.713640e-01 
9.744372e-01 
9.785839e-01 
9.837201e-01 
9.897864e-01 
9.967402e-01 
1.004549e+00 
1.013185e+00 
1.022622e+00 
1.032837e+00 
1.043805e+00 
1.055500e+00 
1.067899e+00 
1.080976e+00 
1.094710e+00 
1.109076e+00 
1.124053e+00 
1.139618e+00 
1.155748e+00 
1.172424e+00 
1.189624e+00 
1.207328e+00 
1.225517e+00 
1.244172e+00 
1.463517e+00 
1.440727e+00 
1.418210e+00 
1.396001e+00 
1.374106e+00 
1.352535e+00 
1.331300e+00 
1.310414e+00 
1.289892e+00 
1.269748e+00 
1.249998e+00 
1.230657e+00 
1.211743e+00 
1.193273e+00 
1.175266e+00 
1.157739e+00 
1.140713e+00 
1.124209e+00 
1.108248e+00 
1.092851e+00 
1.078040e+00 
1.063839e+00 
1.050269e+00 
1.037353e+00 
1.025115e+00 
1.013577e+00 
1.002763e+00 
9.926938e-01 
9.833930e-01 
9.748820e-01 
9.671821e-01 
9.603142e-01 
9.542991e-01 
9.491536e-01 
9.448898e-01 
9.415195e-01 
9.390556e-01 
9.375120e-01 
9.369208e-01 
9.376148e-01 
9.396158e-01 
9.428183e-01 
9.471100e-01 
9.524056e-01 
9.586464e-01 
9.657908e-01 
9.738064e-01 
9.826652e-01 
9.923408e-01 
1.002808e+00 
1.014041e+00 
1.026013e+00 
1.038698e+00 
1.052072e+00 
1.066109e+00 
1.080785e+00 
1.096078e+00 
1.111963e+00 
1.128417e+00 
1.145418e+00 
1.162946e+00 
1.180979e+00 
1.199496e+00 
1.218480e+00 
1.441491e+00 
1.418395e+00 
1.395570e+00 
1.373049e+00 
1.350839e+00 
1.328949e+00 
1.307392e+00 
1.286182e+00 
1.265333e+00 
1.244859e+00 
1.224778e+00 
1.205104e+00 
1.185856e+00 
1.167052e+00 
1.148710e+00 
1.130850e+00 
1.113491e+00 
1.096657e+00 
1.080368e+00 
1.064647e+00 
1.049517e+00 
1.035003e+00 
1.021127e+00 
1.007914e+00 
9.953877e-01 
9.835734e-01 
9.724950e-01 
9.621764e-01 
9.526415e-01 
9.439134e-01 
9.360150e-01 
9.289687e-01 
9.227966e-01 
9.175168e-01 
9.131427e-01 
9.096875e-01 
9.071654e-01 
9.055916e-01 
9.050043e-01 
9.057667e-01 
9.078775e-01 
9.112127e-01 
9.156530e-01 
9.211124e-01 
9.275334e-01 
9.348753e-01 
9.431057e-01 
9.521959e-01 
9.621187e-01 
9.728472e-01 
9.843548e-01 
9.966135e-01 
1.009596e+00 
1.023275e+00 
1.037625e+00 
1.052621e+00 
1.068238e+00 
1.084450e+00 
1.101236e+00 
1.118570e+00 
1.136432e+00 
1.154800e+00 
1.173652e+00 
1.192968e+00 
1.419790e+00 
1.396385e+00 
1.373249e+00 
1.350411e+00 
1.327879e+00 
1.305665e+00 
1.283780e+00 
1.262239e+00 
1.241056e+00 
1.220246e+00 
1.199825e+00 
1.179810e+00 
1.160219e+00 
1.141071e+00 
1.122385e+00 
1.104181e+00 
1.086480e+00 
1.069305e+00 
1.052677e+00 
1.036620e+00 
1.021160e+00 
1.006320e+00 
9.921254e-01 
9.786022e-01 
9.657760e-01 
9.536727e-01 
9.423179e-01 
9.317374e-01 
9.219566e-01 
9.130003e-01 
9.048930e-01 
8.976588e-01 
8.913213e-01 
8.859000e-01 
8.814097e-01 
8.778653e-01 
8.752821e-01 
8.736772e-01 
8.730956e-01 
8.739322e-01 
8.761577e-01 
8.796297e-01 
8.842231e-01 
8.898522e-01 
8.964608e-01 
9.040088e-01 
9.124638e-01 
9.217963e-01 
9.319776e-01 
9.429795e-01 
9.547737e-01 
9.673312e-01 
9.806222e-01 
9.946189e-01 
1.009294e+00 
1.024620e+00 
1.040572e+00 
1.057124e+00 
1.074250e+00 
1.091928e+00 
1.110133e+00 
1.128844e+00 
1.148038e+00 
1.167696e+00 
1.398427e+00 
1.374711e+00 
1.351259e+00 
1.328100e+00 
1.305242e+00 
1.282697e+00 
1.260478e+00 
1.238600e+00 
1.217076e+00 
1.195922e+00 
1.175154e+00 
1.154790e+00 
1.134848e+00 
1.115346e+00 
1.096306e+00 
1.077748e+00 
1.059694e+00 
1.042166e+00 
1.025187e+00 
1.008783e+00 
9.929793e-01 
9.778010e-01 
9.632752e-01 
9.494286e-01 
9.362886e-01 
9.238827e-01 
9.122383e-01 
9.013828e-01 
8.913434e-01 
8.821468e-01 
8.738194e-01 
8.663870e-01 
8.598749e-01 
8.543043e-01 
8.496915e-01 
8.460532e-01 
8.434059e-01 
8.417685e-01 
8.411948e-01 
8.421113e-01 
8.444563e-01 
8.480692e-01 
8.528206e-01 
8.586258e-01 
8.654302e-01 
8.731942e-01 
8.818847e-01 
8.914712e-01 
9.019235e-01 
9.132115e-01 
9.253053e-01 
9.381746e-01 
9.517876e-01 
9.661146e-01 
9.811270e-01 
9.967964e-01 
1.013095e+00 
1.029997e+00 
1.047476e+00 
1.065507e+00 
1.084065e+00 
1.103129e+00 
1.122675e+00 
1.142682e+00 
1.377413e+00 
1.353385e+00 
1.329615e+00 
1.306131e+00 
1.282942e+00 
1.260061e+00 
1.237503e+00 
1.215280e+00 
1.193409e+00 
1.171903e+00 
1.150781e+00 
1.130059e+00 
1.109756e+00 
1.089893e+00 
1.070488e+00 
1.051565e+00 
1.033146e+00 
1.015253e+00 
9.979125e-01 
9.811485e-01 
9.649879e-01 
9.494581e-01 
9.345869e-01 
9.204027e-01 
9.069346e-01 
8.942117e-01 
8.822633e-01 
8.711189e-01 
8.608074e-01 
8.513577e-01 
8.427981e-01 
8.351565e-01 
8.284599e-01 
8.227315e-01 
8.179892e-01 
8.142516e-01 
8.115367e-01 
8.098654e-01 
8.093019e-01 
8.103039e-01 
8.127725e-01 
8.165304e-01 
8.214451e-01 
8.274337e-01 
8.344430e-01 
8.424336e-01 
8.513717e-01 
8.612249e-01 
8.719615e-01 
8.835494e-01 
8.959568e-01 
9.091515e-01 
9.231001e-01 
9.377711e-01 
9.531340e-01 
9.691591e-01 
9.858175e-01 
1.003081e+00 
1.020924e+00 
1.039319e+00 
1.058241e+00 
1.077667e+00 
1.097574e+00 
1.117939e+00 
1.356763e+00 
1.332419e+00 
1.308329e+00 
1.284518e+00 
1.260994e+00 
1.237773e+00 
1.214868e+00 
1.192296e+00 
1.170070e+00 
1.148206e+00 
1.126721e+00 
1.105633e+00 
1.084961e+00 
1.064725e+00 
1.044946e+00 
1.025647e+00 
1.006851e+00 
9.885821e-01 
9.708659e-01 
9.537288e-01 
9.371981e-01 
9.213026e-01 
9.060715e-01 
8.915349e-01 
8.777236e-01 
8.646686e-01 
8.524012e-01 
8.409530e-01 
8.303551e-01 
8.206387e-01 
8.118341e-01 
8.039715e-01 
7.970800e-01 
7.911845e-01 
7.863053e-01 
7.824625e-01 
7.796763e-01 
7.779694e-01 
7.774184e-01 
7.785109e-01 
7.811070e-01 
7.850140e-01 
7.900980e-01 
7.962782e-01 
8.035027e-01 
8.117319e-01 
8.209305e-01 
8.310645e-01 
8.420999e-01 
8.540025e-01 
8.667383e-01 
8.802732e-01 
8.945721e-01 
9.096013e-01 
9.253286e-01 
9.417226e-01 
9.587534e-01 
9.763915e-01 
9.946091e-01 
1.013379e+00 
1.032676e+00 
1.052474e+00 
1.072750e+00 
1.093482e+00 
1.336491e+00 
1.311829e+00 
1.287417e+00 
1.263275e+00 
1.239414e+00 
1.215848e+00 
1.192593e+00 
1.169663e+00 
1.147076e+00 
1.124845e+00 
1.102990e+00 
1.081527e+00 
1.060477e+00 
1.039859e+00 
1.019695e+00 
1.000009e+00 
9.808243e-01 
9.621663e-01 
9.440616e-01 
9.265375e-01 
9.096226e-01 
8.933465e-01 
8.777401e-01 
8.628353e-01 
8.486647e-01 
8.352615e-01 
8.226590e-01 
8.108911e-01 
7.999914e-01 
7.899934e-01 
7.809300e-01 
7.728337e-01 
7.657357e-01 
7.596632e-01 
7.546389e-01 
7.506850e-01 
7.478235e-01 
7.460795e-01 
7.455442e-01 
7.467332e-01 
7.494613e-01 
7.535223e-01 
7.587828e-01 
7.651642e-01 
7.726156e-01 
7.810968e-01 
7.905706e-01 
8.010008e-01 
8.123509e-01 
8.245843e-01 
8.376646e-01 
8.515556e-01 
8.662203e-01 
8.816229e-01 
8.977292e-01 
9.145064e-01 
9.319229e-01 
9.499482e-01 
9.685530e-01 
9.877095e-01 
1.007391e+00 
1.027571e+00 
1.048226e+00 
1.069333e+00 
1.316603e+00 
1.291624e+00 
1.266887e+00 
1.242412e+00 
1.218211e+00 
1.194298e+00 
1.170688e+00 
1.147397e+00 
1.124441e+00 
1.101838e+00 
1.079605e+00 
1.057760e+00 
1.036323e+00 
1.015315e+00 
9.947567e-01 
9.746732e-01 
9.550889e-01 
9.360301e-01 
9.175241e-01 
8.995996e-01 
8.822862e-01 
8.656148e-01 
8.496179e-01 
8.343291e-01 
8.197831e-01 
8.060150e-01 
7.930609e-01 
7.809569e-01 
7.697392e-01 
7.594440e-01 
7.501070e-01 
7.417631e-01 
7.344464e-01 
7.281866e-01 
7.230085e-01 
7.189368e-01 
7.159954e-01 
7.142119e-01 
7.136929e-01 
7.149745e-01 
7.178343e-01 
7.220534e-01 
7.274977e-01 
7.340909e-01 
7.417824e-01 
7.505305e-01 
7.602959e-01 
7.710394e-01 
7.827220e-01 
7.953043e-01 
8.087473e-01 
8.230124e-01 
8.380604e-01 
8.538534e-01 
8.703552e-01 
8.875315e-01 
9.053490e-01 
9.237760e-01 
9.427820e-01 
9.623380e-01 
9.824162e-01 
1.002990e+00 
1.024035e+00 
1.045527e+00 
1.297129e+00 
1.271829e+00 
1.246765e+00 
1.221956e+00 
1.197412e+00 
1.173148e+00 
1.149180e+00 
1.125522e+00 
1.102193e+00 
1.079210e+00 
1.056591e+00 
1.034354e+00 
1.012521e+00 
9.911107e-01 
9.701471e-01 
9.496541e-01 
9.296573e-01 
9.101834e-01 
8.912611e-01 
8.729200e-01 
8.551912e-01 
8.381072e-01 
8.217018e-01 
8.060105e-01 
7.910698e-01 
7.769177e-01 
7.635924e-01 
7.511330e-01 
7.395785e-01 
7.289680e-01 
7.193400e-01 
7.107328e-01 
7.031831e-01 
6.967234e-01 
6.913813e-01 
6.871840e-01 
6.841577e-01 
6.823326e-01 
6.818356e-01 
6.832237e-01 
6.862245e-01 
6.906096e-01 
6.962476e-01 
7.030650e-01 
7.110111e-01 
7.200422e-01 
7.301161e-01 
7.411907e-01 
7.532235e-01 
7.661725e-01 
7.799956e-01 
7.946517e-01 
8.100995e-01 
8.262986e-01 
8.432111e-01 
8.608007e-01 
8.790329e-01 
8.978743e-01 
9.172934e-01 
9.372599e-01 
9.577453e-01 
9.787224e-01 
1.000166e+00 
1.022050e+00 
1.278077e+00 
1.252456e+00 
1.227064e+00 
1.201918e+00 
1.177029e+00 
1.152412e+00 
1.128082e+00 
1.104054e+00 
1.080346e+00 
1.056977e+00 
1.033964e+00 
1.011329e+00 
9.890894e-01 
9.672683e-01 
9.458885e-01 
9.249744e-01 
9.045523e-01 
8.846499e-01 
8.652966e-01 
8.465233e-01 
8.283627e-01 
8.108486e-01 
7.940168e-01 
7.779043e-01 
7.625500e-01 
7.479942e-01 
7.342781e-01 
7.214436e-01 
7.095328e-01 
6.985880e-01 
6.886512e-01 
6.797638e-01 
6.719657e-01 
6.652926e-01 
6.597751e-01 
6.554434e-01 
6.523261e-01 
6.504564e-01 
6.499848e-01 
6.514843e-01 
6.546306e-01 
6.591883e-01 
6.650304e-01 
6.720854e-01 
6.803020e-01 
6.896337e-01 
7.000348e-01 
7.114596e-01 
7.238622e-01 
7.371970e-01 
7.514192e-01 
7.664847e-01 
7.823500e-01 
7.989722e-01 
8.163113e-01 
8.343295e-01 
8.529903e-01 
8.722592e-01 
8.921033e-01 
9.124914e-01 
9.333940e-01 
9.547832e-01 
9.766326e-01 
9.989173e-01 
1.259464e+00 
1.233521e+00 
1.207800e+00 
1.182316e+00 
1.157080e+00 
1.132107e+00 
1.107412e+00 
1.083011e+00 
1.058921e+00 
1.035160e+00 
1.011747e+00 
9.887038e-01 
9.660503e-01 
9.438085e-01 
9.220018e-01 
9.006551e-01 
8.797953e-01 
8.594507e-01 
8.396517e-01 
8.204305e-01 
8.018209e-01 
7.838588e-01 
7.665815e-01 
7.500283e-01 
7.342401e-01 
7.192599e-01 
7.051319e-01 
6.919010e-01 
6.796129e-01 
6.683134e-01 
6.580481e-01 
6.488620e-01 
6.407988e-01 
6.338975e-01 
6.281925e-01 
6.237169e-01 
6.205024e-01 
6.185849e-01 
6.181426e-01 
6.197583e-01 
6.230548e-01 
6.277932e-01 
6.338513e-01 
6.411594e-01 
6.496645e-01 
6.593164e-01 
6.700655e-01 
6.818618e-01 
6.946554e-01 
7.083973e-01 
7.230391e-01 
7.385340e-01 
7.548358e-01 
7.718992e-01 
7.896822e-01 
8.081449e-01 
8.272495e-01 
8.469598e-01 
8.672417e-01 
8.880631e-01 
9.093935e-01 
9.312042e-01 
9.534684e-01 
9.761607e-01 
1.241305e+00 
1.215042e+00 
1.188991e+00 
1.163167e+00 
1.137583e+00 
1.112253e+00 
1.087191e+00 
1.062413e+00 
1.037937e+00 
1.013780e+00 
9.899616e-01 
9.665035e-01 
9.434271e-01 
9.207550e-01 
8.985108e-01 
8.767201e-01 
8.554098e-01 
8.346093e-01 
8.143497e-01 
7.946642e-01 
7.755883e-01 
7.571594e-01 
7.394168e-01 
7.224020e-01 
7.061585e-01 
6.907318e-01 
6.761691e-01 
6.625189e-01 
6.498307e-01 
6.381540e-01 
6.275386e-01 
6.180336e-01 
6.096868e-01 
6.025412e-01 
5.966350e-01 
5.920051e-01 
5.886863e-01 
5.867176e-01 
5.863089e-01 
5.880458e-01 
5.914978e-01 
5.964263e-01 
6.027142e-01 
6.102930e-01 
6.191065e-01 
6.291004e-01 
6.402202e-01 
6.524110e-01 
6.656187e-01 
6.797903e-01 
6.948739e-01 
7.108195e-01 
7.275780e-01 
7.451018e-01 
7.633466e-01 
7.822707e-01 
8.018344e-01 
8.220004e-01 
8.427333e-01 
8.639998e-01 
8.857687e-01 
9.080107e-01 
9.306982e-01 
9.538055e-01 
1.223619e+00 
1.197036e+00 
1.170655e+00 
1.144492e+00 
1.118558e+00 
1.092869e+00 
1.067438e+00 
1.042282e+00 
1.017416e+00 
9.928590e-01 
9.686307e-01 
9.447520e-01 
9.212449e-01 
8.981332e-01 
8.754412e-01 
8.531948e-01 
8.314216e-01 
8.101512e-01 
7.894157e-01 
7.692495e-01 
7.496893e-01 
7.307742e-01 
7.125456e-01 
6.950474e-01 
6.783256e-01 
6.624287e-01 
6.474069e-01 
6.333128e-01 
6.201995e-01 
6.081212e-01 
5.971319e-01 
5.872856e-01 
5.786346e-01 
5.712266e-01 
5.651042e-01 
5.603084e-01 
5.568775e-01 
5.548539e-01 
5.544836e-01 
5.563467e-01 
5.599606e-01 
5.650901e-01 
5.716238e-01 
5.794927e-01 
5.886369e-01 
5.989966e-01 
6.105117e-01 
6.231221e-01 
6.367689e-01 
6.513946e-01 
6.669436e-01 
6.833623e-01 
7.005988e-01 
7.186029e-01 
7.373282e-01 
7.567309e-01 
7.767698e-01 
7.974059e-01 
8.186029e-01 
8.403264e-01 
8.625444e-01 
8.852270e-01 
9.083462e-01 
9.318758e-01 
1.206423e+00 
1.179520e+00 
1.152810e+00 
1.126308e+00 
1.100025e+00 
1.073977e+00 
1.048176e+00 
1.022638e+00 
9.973807e-01 
9.724209e-01 
9.477784e-01 
9.234739e-01 
8.995298e-01 
8.759702e-01 
8.528205e-01 
8.301072e-01 
8.078582e-01 
7.861039e-01 
7.648771e-01 
7.442132e-01 
7.241503e-01 
7.047291e-01 
6.859931e-01 
6.679885e-01 
6.507640e-01 
6.343715e-01 
6.188646e-01 
6.042997e-01 
5.907344e-01 
5.782276e-01 
5.668385e-01 
5.566263e-01 
5.476485e-01 
5.399579e-01 
5.336024e-01 
5.286278e-01 
5.250762e-01 
5.229934e-01 
5.226666e-01 
5.246612e-01 
5.284440e-01 
5.337873e-01 
5.405849e-01 
5.487660e-01 
5.582654e-01 
5.690171e-01 
5.809544e-01 
5.940116e-01 
6.081243e-01 
6.232302e-01 
6.392697e-01 
6.561854e-01 
6.739224e-01 
6.924279e-01 
7.116530e-01 
7.315520e-01 
7.520820e-01 
7.732029e-01 
7.948770e-01 
8.170693e-01 
8.397468e-01 
8.628791e-01 
8.864378e-01 
9.103963e-01 
1.189736e+00 
1.162514e+00 
1.135477e+00 
1.108637e+00 
1.082006e+00 
1.055598e+00 
1.029427e+00 
1.003507e+00 
9.778558e-01 
9.524905e-01 
9.274301e-01 
9.026955e-01 
8.783088e-01 
8.542942e-01 
8.306776e-01 
8.074861e-01 
7.847486e-01 
7.624963e-01 
7.407626e-01 
7.195839e-01 
6.989996e-01 
6.790520e-01 
6.597866e-01 
6.412518e-01 
6.234995e-01 
6.065847e-01 
5.905651e-01 
5.755010e-01 
5.614548e-01 
5.484907e-01 
5.366736e-01 
5.260686e-01 
5.167391e-01 
5.087438e-01 
5.021367e-01 
4.969689e-01 
4.932872e-01 
4.911407e-01 
4.908608e-01 
4.929898e-01 
4.969496e-01 
5.025218e-01 
5.096040e-01 
5.181222e-01 
5.280043e-01 
5.391768e-01 
5.515661e-01 
5.650998e-01 
5.797076e-01 
5.953222e-01 
6.118793e-01 
6.293178e-01 
6.475793e-01 
6.666084e-01 
6.863537e-01 
7.067677e-01 
7.278058e-01 
7.494265e-01 
7.715913e-01 
7.942641e-01 
8.174115e-01 
8.410024e-01 
8.650082e-01 
8.894022e-01 
1.173590e+00 
1.146051e+00 
1.118686e+00 
1.091509e+00 
1.064530e+00 
1.037762e+00 
1.011218e+00 
9.849152e-01 
9.588680e-01 
9.330941e-01 
9.076123e-01 
8.824431e-01 
8.576084e-01 
8.331323e-01 
8.090405e-01 
7.853611e-01 
7.621237e-01 
7.393603e-01 
7.171052e-01 
6.953955e-01 
6.742718e-01 
6.537779e-01 
6.339613e-01 
6.148728e-01 
5.965670e-01 
5.791025e-01 
5.625410e-01 
5.469471e-01 
5.323887e-01 
5.189355e-01 
5.066592e-01 
4.956314e-01 
4.859224e-01 
4.775978e-01 
4.707185e-01 
4.653418e-01 
4.615199e-01 
4.593048e-01 
4.590719e-01 
4.613339e-01 
4.654802e-01 
4.712992e-01 
4.786902e-01 
4.875737e-01 
4.978696e-01 
5.094957e-01 
5.223703e-01 
5.364136e-01 
5.515492e-01 
5.677040e-01 
5.848089e-01 
6.027988e-01 
6.216116e-01 
6.411890e-01 
6.614774e-01 
6.824273e-01 
7.039926e-01 
7.261306e-01 
7.488015e-01 
7.719688e-01 
7.955984e-01 
8.196589e-01 
8.441214e-01 
8.689591e-01 
1.157993e+00 
1.130138e+00 
1.102450e+00 
1.074938e+00 
1.047614e+00 
1.020488e+00 
9.935756e-01 
9.668899e-01 
9.404471e-01 
9.142641e-01 
8.883594e-01 
8.627529e-01 
8.374666e-01 
8.125238e-01 
7.879506e-01 
7.637747e-01 
7.400266e-01 
7.167390e-01 
6.939471e-01 
6.716890e-01 
6.500062e-01 
6.289441e-01 
6.085519e-01 
5.888829e-01 
5.699947e-01 
5.519490e-01 
5.348118e-01 
5.186530e-01 
5.035458e-01 
4.895669e-01 
4.767948e-01 
4.653091e-01 
4.551882e-01 
4.465060e-01 
4.393306e-01 
4.337268e-01 
4.297530e-01 
4.274644e-01 
4.272890e-01 
4.296960e-01 
4.340419e-01 
4.401286e-01 
4.478560e-01 
4.571370e-01 
4.678812e-01 
4.799965e-01 
4.933921e-01 
5.079803e-01 
5.236777e-01 
5.404053e-01 
5.580889e-01 
5.766589e-01 
5.960494e-01 
6.161994e-01 
6.370532e-01 
6.585592e-01 
6.806701e-01 
7.033417e-01 
7.265338e-01 
7.502088e-01 
7.743325e-01 
7.988732e-01 
8.238019e-01 
8.490919e-01 
1.142964e+00 
1.114799e+00 
1.086792e+00 
1.058949e+00 
1.031282e+00 
1.003802e+00 
9.765223e-01 
9.494558e-01 
9.226183e-01 
8.960263e-01 
8.696979e-01 
8.436526e-01 
8.179117e-01 
7.924986e-01 
7.674386e-01 
7.427596e-01 
7.184921e-01 
6.946692e-01 
6.713269e-01 
6.485044e-01 
6.262441e-01 
6.045927e-01 
5.836009e-01 
5.633245e-01 
5.438238e-01 
5.251644e-01 
5.074166e-01 
4.906557e-01 
4.749613e-01 
4.604172e-01 
4.471099e-01 
4.351278e-01 
4.245587e-01 
4.154854e-01 
4.079856e-01 
4.021326e-01 
3.979920e-01 
3.956224e-01 
3.955076e-01 
3.980642e-01 
4.026225e-01 
4.089993e-01 
4.170928e-01 
4.268054e-01 
4.380343e-01 
4.506760e-01 
4.646295e-01 
4.797982e-01 
4.960912e-01 
5.134232e-01 
5.317145e-01 
5.508911e-01 
5.708832e-01 
5.916270e-01 
6.130646e-01 
6.351426e-01 
6.578122e-01 
6.810283e-01 
7.047498e-01 
7.289389e-01 
7.535611e-01 
7.785846e-01 
8.039806e-01 
8.297225e-01 
1.128526e+00 
1.100058e+00 
1.071735e+00 
1.043566e+00 
1.015560e+00 
9.877295e-01 
9.600852e-01 
9.326409e-01 
9.054110e-01 
8.784115e-01 
8.516600e-01 
8.251754e-01 
7.989785e-01 
7.730922e-01 
7.475415e-01 
7.223538e-01 
6.975593e-01 
6.731912e-01 
6.492862e-01 
6.258839e-01 
6.030280e-01 
5.807662e-01 
5.591510e-01 
5.382399e-01 
5.180964e-01 
4.987894e-01 
4.803940e-01 
4.629913e-01 
4.466677e-01 
4.315149e-01 
4.176286e-01 
4.051071e-01 
3.940488e-01 
3.845479e-01 
3.766924e-01 
3.705658e-01 
3.662429e-01 
3.637854e-01 
3.637348e-01 
3.664462e-01 
3.712333e-01 
3.779283e-01 
3.864236e-01 
3.966081e-01 
4.083644e-01 
4.215755e-01 
4.361291e-01 
4.519188e-01 
4.688456e-01 
4.868175e-01 
5.057490e-01 
5.255616e-01 
5.461817e-01 
5.675428e-01 
5.895847e-01 
6.122523e-01 
6.354955e-01 
6.592686e-01 
6.835297e-01 
7.082409e-01 
7.333675e-01 
7.588780e-01 
7.847438e-01 
8.109387e-01 
1.114700e+00 
1.085934e+00 
1.057303e+00 
1.028813e+00 
1.000474e+00 
9.722967e-01 
9.442928e-01 
9.164748e-01 
8.888562e-01 
8.614523e-01 
8.342798e-01 
8.073570e-01 
7.807043e-01 
7.543437e-01 
7.282996e-01 
7.025990e-01 
6.772716e-01 
6.523503e-01 
6.278717e-01 
6.038759e-01 
5.804073e-01 
5.575147e-01 
5.352520e-01 
5.136788e-01 
4.928610e-01 
4.728712e-01 
4.537892e-01 
4.357019e-01 
4.187032e-01 
4.028937e-01 
3.883792e-01 
3.752697e-01 
3.636761e-01 
3.537052e-01 
3.454581e-01 
3.390301e-01 
3.345069e-01 
3.319542e-01 
3.319705e-01 
3.348427e-01 
3.398785e-01 
3.469244e-01 
3.558631e-01 
3.665659e-01 
3.788980e-01 
3.927270e-01 
4.079276e-01 
4.243829e-01 
4.419849e-01 
4.606345e-01 
4.802406e-01 
5.007198e-01 
5.219949e-01 
5.439970e-01 
5.666636e-01 
5.899382e-01 
6.137696e-01 
6.381113e-01 
6.629214e-01 
6.881618e-01 
7.137981e-01 
7.397992e-01 
7.661367e-01 
7.927851e-01 
1.101508e+00 
1.072453e+00 
1.043519e+00 
1.014715e+00 
9.860493e-01 
9.575323e-01 
9.291747e-01 
9.009883e-01 
8.729860e-01 
8.451822e-01 
8.175925e-01 
7.902347e-01 
7.631279e-01 
7.362936e-01 
7.097555e-01 
6.835397e-01 
6.576752e-01 
6.321945e-01 
6.071335e-01 
5.825323e-01 
5.584356e-01 
5.348930e-01 
5.119596e-01 
4.896970e-01 
4.681731e-01 
4.474642e-01 
4.276544e-01 
4.088369e-01 
3.911133e-01 
3.745940e-01 
3.593964e-01 
3.456437e-01 
3.334615e-01 
3.229721e-01 
3.142915e-01 
3.075296e-01 
3.027855e-01 
3.001295e-01 
3.002132e-01 
3.032535e-01 
3.085615e-01 
3.159972e-01 
3.254278e-01 
3.367022e-01 
3.496650e-01 
3.641663e-01 
3.800660e-01 
3.972354e-01 
4.155572e-01 
4.349247e-01 
4.552410e-01 
4.764180e-01 
4.983754e-01 
5.210417e-01 
5.443527e-01 
5.682505e-01 
5.926833e-01 
6.176041e-01 
6.429710e-01 
6.687463e-01 
6.948960e-01 
7.213894e-01 
7.481990e-01 
7.752999e-01 
1.088966e+00 
1.059630e+00 
1.030403e+00 
1.001293e+00 
9.723088e-01 
9.434598e-01 
9.147560e-01 
8.862084e-01 
8.578292e-01 
8.296318e-01 
8.016310e-01 
7.738433e-01 
7.462868e-01 
7.189821e-01 
6.919518e-01 