# vtk DataFile Version 2.0 
Quadtree Mesh 
ASCII 
DATASET UNSTRUCTURED_GRID 
POINTS 4096 double 
-1.000000e+00 -1.000000e+00 0.000000e+00
-9.682540e-01 -1.000000e+00 0.000000e+00
-9.365079e-01 -1.000000e+00 0.000000e+00
-9.047619e-01 -1.000000e+00 0.000000e+00
-8.730159e-01 -1.000000e+00 0.000000e+00
-8.412698e-01 -1.000000e+00 0.000000e+00
-8.095238e-01 -1.000000e+00 0.000000e+00
-7.777778e-01 -1.000000e+00 0.000000e+00
-7.460317e-01 -1.000000e+00 0.000000e+00
-7.142857e-01 -1.000000e+00 0.000000e+00
-6.825397e-01 -1.000000e+00 0.000000e+00
-6.507937e-01 -1.000000e+00 0.000000e+00
-6.190476e-01 -1.000000e+00 0.000000e+00
-5.873016e-01 -1.000000e+00 0.000000e+00
-5.555556e-01 -1.000000e+00 0.000000e+00
-5.238095e-01 -1.000000e+00 0.000000e+00
-4.920635e-01 -1.000000e+00 0.000000e+00
-4.603175e-01 -1.000000e+00 0.000000e+00
-4.285714e-01 -1.000000e+00 0.000000e+00
-3.968254e-01 -1.000000e+00 0.000000e+00
-3.650794e-01 -1.000000e+00 0.000000e+00
-3.333333e-01 -1.000000e+00 0.000000e+00
-3.015873e-01 -1.000000e+00 0.000000e+00
-2.698413e-01 -1.000000e+00 0.000000e+00
-2.380952e-01 -1.000000e+00 0.000000e+00
-2.063492e-01 -1.000000e+00 0.000000e+00
-1.746032e-01 -1.000000e+00 0.000000e+00
-1.428571e-01 -1.000000e+00 0.000000e+00
-1.111111e-01 -1.000000e+00 0.000000e+00
-7.936508e-02 -1.000000e+00 0.000000e+00
-4.761905e-02 -1.000000e+00 0.000000e+00
-1.587302e-02 -1.000000e+00 0.000000e+00
1.587302e-02 -1.000000e+00 0.000000e+00
4.761905e-02 -1.000000e+00 0.000000e+00
7.936508e-02 -1.000000e+00 0.000000e+00
1.111111e-01 -1.000000e+00 0.000000e+00
1.428571e-01 -1.000000e+00 0.000000e+00
1.746032e-01 -1.000000e+00 0.000000e+00
2.063492e-01 -1.000000e+00 0.000000e+00
2.380952e-01 -1.000000e+00 0.000000e+00
2.698413e-01 -1.000000e+00 0.000000e+00
3.015873e-01 -1.000000e+00 0.000000e+00
3.333333e-01 -1.000000e+00 0.000000e+00
3.650794e-01 -1.000000e+00 0.000000e+00
3.968254e-01 -1.000000e+00 0.000000e+00
4.285714e-01 -1.000000e+00 0.000000e+00
4.603175e-01 -1.000000e+00 0.000000e+00
4.920635e-01 -1.000000e+00 0.000000e+00
5.238095e-01 -1.000000e+00 0.000000e+00
5.555556e-01 -1.000000e+00 0.000000e+00
5.873016e-01 -1.000000e+00 0.000000e+00
6.190476e-01 -1.000000e+00 0.000000e+00
6.507937e-01 -1.000000e+00 0.000000e+00
6.825397e-01 -1.000000e+00 0.000000e+00
7.142857e-01 -1.000000e+00 0.000000e+00
7.460317e-01 -1.000000e+00 0.000000e+00
7.777778e-01 -1.000000e+00 0.000000e+00
8.095238e-01 -1.000000e+00 0.000000e+00
8.412698e-01 -1.000000e+00 0.000000e+00
8.730159e-01 -1.000000e+00 0.000000e+00
9.047619e-01 -1.000000e+00 0.000000e+00
9.365079e-01 -1.000000e+00 0.000000e+00
9.682540e-01 -1.000000e+00 0.000000e+00
1.000000e+00 -1.000000e+00 0.000000e+00
-1.000000e+00 -9.682540e-01 0.000000e+00
-9.682540e-01 -9.682540e-01 0.000000e+00
-9.365079e-01 -9.682540e-01 0.000000e+00
-9.047619e-01 -9.682540e-01 0.000000e+00
-8.730159e-01 -9.682540e-01 0.000000e+00
-8.412698e-01 -9.682540e-01 0.000000e+00
-8.095238e-01 -9.682540e-01 0.000000e+00
-7.777778e-01 -9.682540e-01 0.000000e+00
-7.460317e-01 -9.682540e-01 0.000000e+00
-7.142857e-01 -9.682540e-01 0.000000e+00
-6.825397e-01 -9.682540e-01 0.000000e+00
-6.507937e-01 -9.682540e-01 0.000000e+00
-6.190476e-01 -9.682540e-01 0.000000e+00
-5.873016e-01 -9.682540e-01 0.000000e+00
-5.555556e-01 -9.682540e-01 0.000000e+00
-5.238095e-01 -9.682540e-01 0.000000e+00
-4.920635e-01 -9.682540e-01 0.000000e+00
-4.603175e-01 -9.682540e-01 0.000000e+00
-4.285714e-01 -9.682540e-01 0.000000e+00
-3.968254e-01 -9.682540e-01 0.000000e+00
-3.650794e-01 -9.682540e-01 0.000000e+00
-3.333333e-01 -9.682540e-01 0.000000e+00
-3.015873e-01 -9.682540e-01 0.000000e+00
-2.698413e-01 -9.682540e-01 0.000000e+00
-2.380952e-01 -9.682540e-01 0.000000e+00
-2.063492e-01 -9.682540e-01 0.000000e+00
-1.746032e-01 -9.682540e-01 0.000000e+00
-1.428571e-01 -9.682540e-01 0.000000e+00
-1.111111e-01 -9.682540e-01 0.000000e+00
-7.936508e-02 -9.682540e-01 0.000000e+00
-4.761905e-02 -9.682540e-01 0.000000e+00
-1.587302e-02 -9.682540e-01 0.000000e+00
1.587302e-02 -9.682540e-01 0.000000e+00
4.761905e-02 -9.682540e-01 0.000000e+00
7.936508e-02 -9.682540e-01 0.000000e+00
1.111111e-01 -9.682540e-01 0.000000e+00
1.428571e-01 -9.682540e-01 0.000000e+00
1.746032e-01 -9.682540e-01 0.000000e+00
2.063492e-01 -9.682540e-01 0.000000e+00
2.380952e-01 -9.682540e-01 0.000000e+00
2.698413e-01 -9.682540e-01 0.000000e+00
3.015873e-01 -9.682540e-01 0.000000e+00
3.333333e-01 -9.682540e-01 0.000000e+00
3.650794e-01 -9.682540e-01 0.000000e+00
3.968254e-01 -9.682540e-01 0.000000e+00
4.285714e-01 -9.682540e-01 0.000000e+00
4.603175e-01 -9.682540e-01 0.000000e+00
4.920635e-01 -9.682540e-01 0.000000e+00
5.238095e-01 -9.682540e-01 0.000000e+00
5.555556e-01 -9.682540e-01 0.000000e+00
5.873016e-01 -9.682540e-01 0.000000e+00
6.190476e-01 -9.682540e-01 0.000000e+00
6.507937e-01 -9.682540e-01 0.000000e+00
6.825397e-01 -9.682540e-01 0.000000e+00
7.142857e-01 -9.682540e-01 0.000000e+00
7.460317e-01 -9.682540e-01 0.000000e+00
7.777778e-01 -9.682540e-01 0.000000e+00
8.095238e-01 -9.682540e-01 0.000000e+00
8.412698e-01 -9.682540e-01 0.000000e+00
8.730159e-01 -9.682540e-01 0.000000e+00
9.047619e-01 -9.682540e-01 0.000000e+00
9.365079e-01 -9.682540e-01 0.000000e+00
9.682540e-01 -9.682540e-01 0.000000e+00
1.000000e+00 -9.682540e-01 0.000000e+00
-1.000000e+00 -9.365079e-01 0.000000e+00
-9.682540e-01 -9.365079e-01 0.000000e+00
-9.365079e-01 -9.365079e-01 0.000000e+00
-9.047619e-01 -9.365079e-01 0.000000e+00
-8.730159e-01 -9.365079e-01 0.000000e+00
-8.412698e-01 -9.365079e-01 0.000000e+00
-8.095238e-01 -9.365079e-01 0.000000e+00
-7.777778e-01 -9.365079e-01 0.000000e+00
-7.460317e-01 -9.365079e-01 0.000000e+00
-7.142857e-01 -9.365079e-01 0.000000e+00
-6.825397e-01 -9.365079e-01 0.000000e+00
-6.507937e-01 -9.365079e-01 0.000000e+00
-6.190476e-01 -9.365079e-01 0.000000e+00
-5.873016e-01 -9.365079e-01 0.000000e+00
-5.555556e-01 -9.365079e-01 0.000000e+00
-5.238095e-01 -9.365079e-01 0.000000e+00
-4.920635e-01 -9.365079e-01 0.000000e+00
-4.603175e-01 -9.365079e-01 0.000000e+00
-4.285714e-01 -9.365079e-01 0.000000e+00
-3.968254e-01 -9.365079e-01 0.000000e+00
-3.650794e-01 -9.365079e-01 0.000000e+00
-3.333333e-01 -9.365079e-01 0.000000e+00
-3.015873e-01 -9.365079e-01 0.000000e+00
-2.698413e-01 -9.365079e-01 0.000000e+00
-2.380952e-01 -9.365079e-01 0.000000e+00
-2.063492e-01 -9.365079e-01 0.000000e+00
-1.746032e-01 -9.365079e-01 0.000000e+00
-1.428571e-01 -9.365079e-01 0.000000e+00
-1.111111e-01 -9.365079e-01 0.000000e+00
-7.936508e-02 -9.365079e-01 0.000000e+00
-4.761905e-02 -9.365079e-01 0.000000e+00
-1.587302e-02 -9.365079e-01 0.000000e+00
1.587302e-02 -9.365079e-01 0.000000e+00
4.761905e-02 -9.365079e-01 0.000000e+00
7.936508e-02 -9.365079e-01 0.000000e+00
1.111111e-01 -9.365079e-01 0.000000e+00
1.428571e-01 -9.365079e-01 0.000000e+00
1.746032e-01 -9.365079e-01 0.000000e+00
2.063492e-01 -9.365079e-01 0.000000e+00
2.380952e-01 -9.365079e-01 0.000000e+00
2.698413e-01 -9.365079e-01 0.000000e+00
3.015873e-01 -9.365079e-01 0.000000e+00
3.333333e-01 -9.365079e-01 0.000000e+00
3.650794e-01 -9.365079e-01 0.000000e+00
3.968254e-01 -9.365079e-01 0.000000e+00
4.285714e-01 -9.365079e-01 0.000000e+00
4.603175e-01 -9.365079e-01 0.000000e+00
4.920635e-01 -9.365079e-01 0.000000e+00
5.238095e-01 -9.365079e-01 0.000000e+00
5.555556e-01 -9.365079e-01 0.000000e+00
5.873016e-01 -9.365079e-01 0.000000e+00
6.190476e-01 -9.365079e-01 0.000000e+00
6.507937e-01 -9.365079e-01 0.000000e+00
6.825397e-01 -9.365079e-01 0.000000e+00
7.142857e-01 -9.365079e-01 0.000000e+00
7.460317e-01 -9.365079e-01 0.000000e+00
7.777778e-01 -9.365079e-01 0.000000e+00
8.095238e-01 -9.365079e-01 0.000000e+00
8.412698e-01 -9.365079e-01 0.000000e+00
8.730159e-01 -9.365079e-01 0.000000e+00
9.047619e-01 -9.365079e-01 0.000000e+00
9.365079e-01 -9.365079e-01 0.000000e+00
9.682540e-01 -9.365079e-01 0.000000e+00
1.000000e+00 -9.365079e-01 0.000000e+00
-1.000000e+00 -9.047619e-01 0.000000e+00
-9.682540e-01 -9.047619e-01 0.000000e+00
-9.365079e-01 -9.047619e-01 0.000000e+00
-9.047619e-01 -9.047619e-01 0.000000e+00
-8.730159e-01 -9.047619e-01 0.000000e+00
-8.412698e-01 -9.047619e-01 0.000000e+00
-8.095238e-01 -9.047619e-01 0.000000e+00
-7.777778e-01 -9.047619e-01 0.000000e+00
-7.460317e-01 -9.047619e-01 0.000000e+00
-7.142857e-01 -9.047619e-01 0.000000e+00
-6.825397e-01 -9.047619e-01 0.000000e+00
-6.507937e-01 -9.047619e-01 0.000000e+00
-6.190476e-01 -9.047619e-01 0.000000e+00
-5.873016e-01 -9.047619e-01 0.000000e+00
-5.555556e-01 -9.047619e-01 0.000000e+00
-5.238095e-01 -9.047619e-01 0.000000e+00
-4.920635e-01 -9.047619e-01 0.000000e+00
-4.603175e-01 -9.047619e-01 0.000000e+00
-4.285714e-01 -9.047619e-01 0.000000e+00
-3.968254e-01 -9.047619e-01 0.000000e+00
-3.650794e-01 -9.047619e-01 0.000000e+00
-3.333333e-01 -9.047619e-01 0.000000e+00
-3.015873e-01 -9.047619e-01 0.000000e+00
-2.698413e-01 -9.047619e-01 0.000000e+00
-2.380952e-01 -9.047619e-01 0.000000e+00
-2.063492e-01 -9.047619e-01 0.000000e+00
-1.746032e-01 -9.047619e-01 0.000000e+00
-1.428571e-01 -9.047619e-01 0.000000e+00
-1.111111e-01 -9.047619e-01 0.000000e+00
-7.936508e-02 -9.047619e-01 0.000000e+00
-4.761905e-02 -9.047619e-01 0.000000e+00
-1.587302e-02 -9.047619e-01 0.000000e+00
1.587302e-02 -9.047619e-01 0.000000e+00
4.761905e-02 -9.047619e-01 0.000000e+00
7.936508e-02 -9.047619e-01 0.000000e+00
1.111111e-01 -9.047619e-01 0.000000e+00
1.428571e-01 -9.047619e-01 0.000000e+00
1.746032e-01 -9.047619e-01 0.000000e+00
2.063492e-01 -9.047619e-01 0.000000e+00
2.380952e-01 -9.047619e-01 0.000000e+00
2.698413e-01 -9.047619e-01 0.000000e+00
3.015873e-01 -9.047619e-01 0.000000e+00
3.333333e-01 -9.047619e-01 0.000000e+00
3.650794e-01 -9.047619e-01 0.000000e+00
3.968254e-01 -9.047619e-01 0.000000e+00
4.285714e-01 -9.047619e-01 0.000000e+00
4.603175e-01 -9.047619e-01 0.000000e+00
4.920635e-01 -9.047619e-01 0.000000e+00
5.238095e-01 -9.047619e-01 0.000000e+00
5.555556e-01 -9.047619e-01 0.000000e+00
5.873016e-01 -9.047619e-01 0.000000e+00
6.190476e-01 -9.047619e-01 0.000000e+00
[...]
POINT_DATA 4096 
SCALARS concentration double 1 
LOOKUP_TABLE default 
1.475170e+00 
1.451976e+00 
1.429018e+00 
1.406335e+00 
1.383944e+00 
1.361858e+00 
1.340088e+00 
1.318648e+00 
1.297552e+00 
1.276814e+00 
1.256449e+00 
1.236475e+00 
1.216907e+00 
1.197763e+00 
1.179061e+00 
1.160820e+00 
1.143059e+00 
1.125799e+00 
1.109059e+00 
1.092860e+00 
1.077224e+00 
1.062174e+00 
1.047731e+00 
1.033919e+00 
1.020760e+00 
1.008279e+00 
9.964987e-01 
9.854432e-01 
9.751364e-01 
9.656019e-01 
9.568633e-01 
9.489440e-01 
9.418671e-01 
9.356516e-01 
9.303125e-01 
9.258646e-01 
9.223232e-01 
9.197029e-01 
9.180185e-01 
9.172939e-01 
9.178564e-01 
9.197506e-01 
9.228737e-01 
9.271133e-01 
9.323811e-01 
9.386150e-01 
9.457702e-01 
9.538114e-01 
9.627084e-01 
9.724329e-01 
9.829575e-01 
9.942544e-01 
1.006297e+00 
1.019059e+00 
1.032515e+00 
1.046640e+00 
1.061410e+00 
1.076799e+00 
1.092785e+00 
1.109343e+00 
1.126452e+00 
1.144089e+00 
1.162233e+00 
1.180864e+00 
1.453568e+00 
1.430075e+00 
1.406817e+00 
1.383831e+00 
1.361132e+00 
1.338734e+00 
1.316648e+00 
1.294889e+00 
1.273470e+00 
1.252406e+00 
1.231713e+00 
1.211406e+00 
1.191504e+00 
1.172025e+00 
1.152986e+00 
1.134408e+00 
1.116309e+00 
1.098712e+00 
1.081636e+00 
1.065105e+00 
1.049139e+00 
1.033763e+00 
1.019001e+00 
1.004875e+00 
9.914114e-01 
9.786343e-01 
9.665690e-01 
9.552408e-01 
9.446751e-01 
9.348973e-01 
9.259325e-01 
9.178060e-01 
9.105425e-01 
9.041628e-01 
8.986827e-01 
8.941187e-01 
8.904872e-01 
8.878043e-01 
8.860860e-01 
8.853610e-01 
8.859884e-01 
8.879912e-01 
8.912483e-01 
8.956393e-01 
9.010753e-01 
9.074949e-01 
9.148540e-01 
9.231174e-01 
9.322540e-01 
9.422345e-01 
9.530299e-01 
9.646110e-01 
9.769494e-01 
9.900177e-01 
1.003789e+00 
1.018236e+00 
1.033334e+00 
1.049056e+00 
1.065378e+00 
1.082276e+00 
1.099726e+00 
1.117705e+00 
1.136192e+00 
1.155165e+00 
1.432306e+00 
1.408510e+00 
1.384947e+00 
1.361651e+00 
1.338640e+00 
1.315924e+00 
1.293517e+00 
1.271432e+00 
1.249683e+00 
1.228287e+00 
1.207258e+00 
1.186613e+00 
1.166369e+00 
1.146546e+00 
1.127162e+00 
1.108236e+00 
1.089791e+00 
1.071846e+00 
1.054424e+00 
1.037548e+00 
1.021241e+00 
1.005528e+00 
9.904327e-01 
9.759810e-01 
9.621988e-01 
9.491126e-01 
9.367490e-01 
9.251351e-01 
9.142979e-01 
9.042644e-01 
8.950617e-01 
8.867168e-01 
8.792560e-01 
8.727018e-01 
8.670716e-01 
8.623835e-01 
8.586556e-01 
8.559052e-01 
8.541501e-01 
8.534241e-01 
8.541206e-01 
8.562363e-01 
8.596308e-01 
8.641773e-01 
8.697864e-01 
8.763982e-01 
8.839692e-01 
8.924638e-01 
9.018498e-01 
9.120965e-01 
9.231736e-01 
9.350501e-01 
9.476956e-01 
9.610811e-01 
9.751779e-01 
9.899578e-01 
1.005393e+00 
1.021458e+00 
1.038126e+00 
1.055371e+00 
1.073170e+00 
1.091499e+00 
1.110334e+00 
1.129655e+00 
1.411389e+00 
1.387287e+00 
1.363416e+00 
1.339809e+00 
1.316481e+00 
1.293443e+00 
1.270709e+00 
1.248293e+00 
1.226209e+00 
1.204473e+00 
1.183101e+00 
1.162110e+00 
1.141518e+00 
1.121342e+00 
1.101603e+00 
1.082322e+00 
1.063519e+00 
1.045216e+00 
1.027437e+00 
1.010205e+00 
9.935438e-01 
9.774798e-01 
9.620387e-01 
9.472472e-01 
9.331328e-01 
9.197234e-01 
9.070475e-01 
8.951338e-01 
8.840113e-01 
8.737089e-01 
8.642556e-01 
8.556803e-01 
8.480113e-01 
8.412727e-01 
8.354838e-01 
8.306646e-01 
8.268346e-01 
8.240127e-01 
8.222187e-01 
8.214927e-01 
8.222635e-01 
8.244967e-01 
8.280329e-01 
8.327399e-01 
8.385289e-01 
8.453413e-01 
8.531341e-01 
8.618710e-01 
8.715185e-01 
8.820440e-01 
8.934155e-01 
9.056006e-01 
9.185666e-01 
9.322824e-01 
9.467177e-01 
9.618427e-01 
9.776287e-01 
9.940474e-01 
1.011072e+00 
1.028676e+00 
1.046833e+00 
1.065521e+00 
1.084714e+00 
1.104391e+00 
1.390833e+00 
1.366423e+00 
1.342241e+00 
1.318319e+00 
1.294670e+00 
1.271307e+00 
1.248242e+00 
1.225489e+00 
1.203064e+00 
1.180982e+00 
1.159260e+00 
1.137915e+00 
1.116965e+00 
1.096429e+00 
1.076327e+00 
1.056679e+00 
1.037508e+00 
1.018836e+00 
1.000688e+00 
9.830871e-01 
9.660594e-01 
9.496313e-01 
9.338303e-01 
9.186846e-01 
9.042232e-01 
8.904758e-01 
8.774726e-01 
8.652443e-01 
8.538219e-01 
8.432364e-01 
8.335190e-01 
8.247005e-01 
8.168114e-01 
8.098778e-01 
8.039210e-01 
7.989628e-01 
7.950247e-01 
7.921272e-01 
7.902922e-01 
7.895672e-01 
7.904178e-01 
7.927734e-01 
7.964558e-01 
8.013289e-01 
8.073055e-01 
8.143281e-01 
8.223537e-01 
8.313452e-01 
8.412673e-01 
8.520854e-01 
8.637653e-01 
8.762731e-01 
8.895736e-01 
9.036338e-01 
9.184214e-01 
9.339050e-01 
9.500543e-01 
9.668396e-01 
9.842327e-01 
1.002206e+00 
1.020734e+00 
1.039790e+00 
1.059350e+00 
1.079392e+00 
1.370652e+00 
1.345931e+00 
1.321436e+00 
1.297196e+00 
1.273223e+00 
1.249530e+00 
1.226129e+00 
1.203035e+00 
1.180263e+00 
1.157829e+00 
1.135750e+00 
1.114043e+00 
1.092727e+00 
1.071822e+00 
1.051346e+00 
1.031323e+00 
1.011773e+00 
9.927215e-01 
9.741916e-01 
9.562093e-01 
9.388011e-01 
9.219949e-01 
9.058194e-01 
8.903043e-01 
8.754804e-01 
8.613792e-01 
8.480330e-01 
8.354744e-01 
8.237366e-01 
8.128530e-01 
8.028569e-01 
7.937816e-01 
7.856598e-01 
7.785198e-01 
7.723850e-01 
7.672795e-01 
7.632268e-01 
7.602491e-01 
7.583708e-01 
7.576483e-01 
7.585847e-01 
7.610674e-01 
7.649008e-01 
7.699466e-01 
7.761193e-01 
7.833628e-01 
7.916337e-01 
8.008932e-01 
8.111042e-01 
8.222297e-01 
8.342332e-01 
8.470784e-01 
8.607285e-01 
8.751479e-01 
8.903023e-01 
9.061586e-01 
9.226845e-01 
9.398494e-01 
9.576234e-01 
9.759781e-01 
9.948860e-01 
1.014321e+00 
1.034258e+00 
1.054673e+00 
1.350858e+00 
1.325825e+00 
1.301014e+00 
1.276452e+00 
1.252152e+00 
1.228124e+00 
1.204383e+00 
1.180943e+00 
1.157819e+00 
1.135027e+00 
1.112584e+00 
1.090508e+00 
1.068818e+00 
1.047534e+00 
1.026677e+00 
1.006267e+00 
9.863284e-01 
9.668846e-01 
9.479610e-01 
9.295840e-01 
9.117815e-01 
8.945825e-01 
8.780173e-01 
8.621172e-01 
8.469148e-01 
8.324436e-01 
8.187378e-01 
8.058325e-01 
7.937632e-01 
7.825656e-01 
7.722757e-01 
7.629293e-01 
7.545614e-01 
7.472026e-01 
7.408791e-01 
7.356174e-01 
7.314430e-01 
7.283803e-01 
7.264563e-01 
7.257381e-01 
7.267659e-01 
7.293803e-01 
7.333700e-01 
7.385958e-01 
7.449745e-01 
7.524509e-01 
7.609807e-01 
7.705232e-01 
7.810387e-01 
7.924877e-01 
8.048310e-01 
8.180298e-01 
8.320455e-01 
8.468399e-01 
8.623764e-01 
8.786199e-01 
8.955366e-01 
9.130943e-01 
9.312619e-01 
9.500098e-01 
9.693094e-01 
9.891338e-01 
1.009457e+00 
1.030254e+00 
1.331460e+00 
1.306112e+00 
1.280983e+00 
1.256097e+00 
1.231465e+00 
1.207100e+00 
1.183014e+00 
1.159223e+00 
1.135741e+00 
1.112586e+00 
1.089773e+00 
1.067321e+00 
1.045250e+00 
1.023579e+00 
1.002329e+00 
9.815236e-01 
9.611847e-01 
9.413375e-01 
9.220080e-01 
9.032234e-01 
8.850128e-01 
8.674066e-01 
8.504365e-01 
8.341358e-01 
8.185389e-01 
8.036812e-01 
7.895993e-01 
7.763307e-01 
7.639133e-01 
7.523857e-01 
7.417864e-01 
7.321540e-01 
7.235260e-01 
7.159356e-01 
7.094121e-01 
7.039847e-01 
6.996813e-01 
6.965285e-01 
6.945565e-01 
6.938441e-01 
6.949664e-01 
6.977158e-01 
7.018672e-01 
7.072815e-01 
7.138775e-01 
7.216004e-01 
7.304046e-01 
7.402468e-01 
7.510843e-01 
7.628746e-01 
7.755757e-01 
7.891460e-01 
8.035447e-01 
8.187311e-01 
8.346661e-01 
8.513126e-01 
8.686353e-01 
8.866003e-01 
9.051751e-01 
9.243289e-01 
9.440322e-01 
9.642570e-01 
9.849765e-01 
1.006166e+00 
1.312466e+00 
1.286802e+00 
1.261352e+00 
1.236139e+00 
1.211173e+00 
1.186467e+00 
1.162033e+00 
1.137887e+00 
1.114044e+00 
1.090520e+00 
1.067332e+00 
1.044499e+00 
1.022039e+00 
9.999742e-01 
9.783247e-01 
9.571136e-01 
9.363647e-01 
9.161033e-01 
8.963562e-01 
8.771515e-01 
8.585195e-01 
8.404919e-01 
8.231021e-01 
8.063851e-01 
7.903771e-01 
7.751159e-01 
7.606405e-01 
7.469907e-01 
7.342074e-01 
7.223320e-01 
7.114062e-01 
7.014713e-01 
6.925678e-01 
6.847323e-01 
6.779970e-01 
6.723942e-01 
6.679542e-01 
6.647063e-01 
6.626839e-01 
6.619787e-01 
6.631934e-01 
6.660795e-01 
6.703986e-01 
6.760113e-01 
6.828378e-01 
6.908231e-01 
6.999193e-01 
7.100801e-01 
7.212594e-01 
7.334113e-01 
7.464906e-01 
7.604526e-01 
7.752541e-01 
7.908516e-01 
8.072036e-01 
8.242711e-01 
8.420169e-01 
8.604056e-01 
8.794035e-01 
8.989782e-01 
9.190993e-01 
9.397378e-01 
9.608662e-01 
9.824587e-01 
1.293922e+00 
1.267941e+00 
1.242168e+00 
1.216626e+00 
1.191324e+00 
1.166274e+00 
1.141490e+00 
1.116985e+00 
1.092776e+00 
1.068878e+00 
1.045310e+00 
1.022088e+00 
9.992327e-01 
9.767643e-01 
9.547046e-01 
9.330767e-01 
9.119050e-01 
8.912156e-01 
8.710359e-01 
8.513953e-01 
8.323249e-01 
8.138580e-01 
7.960295e-01 
7.788762e-01 
7.624365e-01 
7.467506e-01 
7.318597e-01 
7.178068e-01 
7.046355e-01 
6.923905e-01 
6.811167e-01 
6.708592e-01 
6.616621e-01 
6.535653e-01 
6.466043e-01 
6.408142e-01 
6.362286e-01 
6.328795e-01 
6.308044e-01 
6.301113e-01 
6.314331e-01 
6.344665e-01 
6.389634e-01 
6.447867e-01 
6.518590e-01 
6.601243e-01 
6.695318e-01 
6.800315e-01 
6.915736e-01 
7.041083e-01 
7.175869e-01 
7.319615e-01 
7.471858e-01 
7.632135e-01 
7.800010e-01 
7.975074e-01 
8.156936e-01 
8.345225e-01 
8.539589e-01 
8.739692e-01 
8.945219e-01 
9.155872e-01 
9.371367e-01 
9.591442e-01 
1.275833e+00 
1.249535e+00 
1.223440e+00 
1.197568e+00 
1.171928e+00 
1.146533e+00 
1.121395e+00 
1.096529e+00 
1.071949e+00 
1.047673e+00 
1.023717e+00 
1.000100e+00 
9.768405e-01 
9.539597e-01 
9.314797e-01 
9.094239e-01 
8.878173e-01 
8.666867e-01 
8.460606e-01 
8.259694e-01 
8.064452e-01 
7.875224e-01 
7.692376e-01 
7.516295e-01 
7.347387e-01 
7.186076e-01 
7.032804e-01 
6.888028e-01 
6.752218e-01 
6.625855e-01 
6.509424e-01 
6.403415e-01 
6.308307e-01 
6.224535e-01 
6.152495e-01 
6.092574e-01 
6.045140e-01 
6.010549e-01 
5.989218e-01 
5.982419e-01 
5.996759e-01 
6.028619e-01 
6.075443e-01 
6.135900e-01 
6.209229e-01 
6.294854e-01 
6.392231e-01 
6.500817e-01 
6.620070e-01 
6.749449e-01 
6.888427e-01 
7.036492e-01 
7.193148e-01 
7.357906e-01 
7.530304e-01 
7.709912e-01 
7.896319e-01 
8.089138e-01 
8.288002e-01 
8.492566e-01 
8.702502e-01 
8.917503e-01 
9.137280e-01 
9.361563e-01 
1.258214e+00 
1.231599e+00 
1.205181e+00 
1.178978e+00 
1.152999e+00 
1.127256e+00 
1.101762e+00 
1.076531e+00 
1.051578e+00 
1.026919e+00 
1.002571e+00 
9.785520e-01 
9.548815e-01 
9.315805e-01 
9.086711e-01 
8.861773e-01 
8.641246e-01 
8.425405e-01 
8.214543e-01 
8.008974e-01 
7.809034e-01 
7.615077e-01 
7.427486e-01 
7.246664e-01 
7.073040e-01 
6.907064e-01 
6.749206e-01 
6.599955e-01 
6.459815e-01 
6.329304e-01 
6.208949e-01 
6.099281e-01 
6.000821e-01 
5.914050e-01 
5.839404e-01 
5.777312e-01 
5.728183e-01 
5.692407e-01 
5.670456e-01 
5.663815e-01 
5.679332e-01 
5.712782e-01 
5.761565e-01 
5.824391e-01 
5.900507e-01 
5.989310e-01 
6.090211e-01 
6.202618e-01 
6.325938e-01 
6.459584e-01 
6.602986e-01 
6.755593e-01 
6.916876e-01 
7.086316e-01 
7.263427e-01 
7.447753e-01 
7.638868e-01 
7.836366e-01 
8.039867e-01 
8.249014e-01 
8.463468e-01 
8.682917e-01 
8.907063e-01 
9.135631e-01 
1.241082e+00 
1.214152e+00 
1.187411e+00 
1.160876e+00 
1.134557e+00 
1.108466e+00 
1.082614e+00 
1.057016e+00 
1.031686e+00 
1.006640e+00 
9.818945e-01 
9.574681e-01 
9.333800e-01 
9.096510e-01 
8.863037e-01 
8.633622e-01 
8.408525e-01 
8.188028e-01 
7.972430e-01 
7.762057e-01 
7.557254e-01 
7.358394e-01 
7.165872e-01 
6.980110e-01 
6.801558e-01 
6.630691e-01 
6.468010e-01 
6.314038e-01 
6.169317e-01 
6.034404e-01 
5.909872e-01 
5.796297e-01 
5.694250e-01 
5.604259e-01 
5.526811e-01 
5.462384e-01 
5.411427e-01 
5.374377e-01 
5.351759e-01 
5.345308e-01 
5.362059e-01 
5.397171e-01 
5.448036e-01 
5.513400e-01 
5.592510e-01 
5.684721e-01 
5.789393e-01 
5.905876e-01 
6.033521e-01 
6.171691e-01 
6.319767e-01 
6.477156e-01 
6.643294e-01 
6.817633e-01 
6.999656e-01 
7.188887e-01 
7.384879e-01 
7.587212e-01 
7.795490e-01 
8.009346e-01 
8.228433e-01 
8.452429e-01 
8.681033e-01 
8.913963e-01 
1.224456e+00 
1.197214e+00 
1.170151e+00 
1.143285e+00 
1.116625e+00 
1.090183e+00 
1.063972e+00 
1.038004e+00 
1.012295e+00 
9.868583e-01 
9.617118e-01 
9.368731e-01 
9.123613e-01 
8.881975e-01 
8.644042e-01 
8.410058e-01 
8.180287e-01 
7.955016e-01 
7.734552e-01 
7.519228e-01 
7.309402e-01 
7.105459e-01 
6.907812e-01 
6.716902e-01 
6.533199e-01 
6.357205e-01 
6.189451e-01 
6.030495e-01 
5.880920e-01 
5.741328e-01 
5.612340e-01 
5.494585e-01 
5.388688e-01 
5.295234e-01 
5.214766e-01 
5.147816e-01 
5.094886e-01 
5.056461e-01 
5.033127e-01 
5.026898e-01 
5.044936e-01 
5.081797e-01 
5.134888e-01 
5.202989e-01 
5.285326e-01 
5.381203e-01 
5.489917e-01 
5.610754e-01 
5.743004e-01 
5.885972e-01 
6.038990e-01 
6.201418e-01 
6.372654e-01 
6.552116e-01 
6.739261e-01 
6.933589e-01 
7.134633e-01 
7.341958e-01 
7.555155e-01 
7.773847e-01 
7.997678e-01 
8.226321e-01 
8.459467e-01 
8.696833e-01 
1.208351e+00 
1.180800e+00 
1.153419e+00 
1.126223e+00 
1.099223e+00 
1.072431e+00 
1.045859e+00 
1.019521e+00 
9.934294e-01 
9.676000e-01 
9.420488e-01 
9.167933e-01 
8.918526e-01 
8.672476e-01 
8.430008e-01 
8.191369e-01 
7.956826e-01 
7.726669e-01 
7.501211e-01 
7.280793e-01 
7.065784e-01 
6.856579e-01 
6.653609e-01 
6.457335e-01 
6.268248e-01 
6.086877e-01 
5.913784e-01 
5.749564e-01 
5.594843e-01 
5.450271e-01 
5.316523e-01 
5.194286e-01 
5.084248e-01 
4.987058e-01 
4.903325e-01 
4.833647e-01 
4.778581e-01 
4.738669e-01 
4.714563e-01 
4.708588e-01 
4.727962e-01 
4.766668e-01 
4.822156e-01 
4.893221e-01 
4.979050e-01 
5.078879e-01 
5.191935e-01 
5.317430e-01 
5.454588e-01 
5.602651e-01 
5.760896e-01 
5.928635e-01 
6.105222e-01 
6.290045e-01 
6.482530e-01 
6.682153e-01 
6.888428e-01 
7.100903e-01 
7.319161e-01 
7.542813e-01 
7.771497e-01 
8.004879e-01 
8.242649e-01 
8.484518e-01 
1.192786e+00 
1.164929e+00 
1.137233e+00 
1.109711e+00 
1.082374e+00 
1.055233e+00 
1.028301e+00 
1.001590e+00 
9.751153e-01 
9.488903e-01 
9.229311e-01 
8.972549e-01 
8.718804e-01 
8.468284e-01 
8.221214e-01 
7.977840e-01 
7.738432e-01 
7.503281e-01 
7.272708e-01 
7.047057e-01 
6.826706e-01 
6.612063e-01 
6.403572e-01 
6.201714e-01 
6.007004e-01 
5.819996e-01 
5.641286e-01 
5.471505e-01 
5.311323e-01 
5.161447e-01 
5.022608e-01 
4.895561e-01 
4.781059e-01 
4.679829e-01 
4.592560e-01 
4.519923e-01 
4.462543e-01 
4.421021e-01 
4.396086e-01 
4.390396e-01 
4.411152e-01 
4.451823e-01 
4.509911e-01 
4.584205e-01 
4.673825e-01 
4.777931e-01 
4.895662e-01 
5.026152e-01 
5.168548e-01 
5.322027e-01 
5.485805e-01 
5.659143e-01 
5.841352e-01 
6.031784e-01 
6.229834e-01 
6.434955e-01 
6.646642e-01 
6.864430e-01 
7.087890e-01 
7.316625e-01 
7.550268e-01 
7.788480e-01 
8.030947e-01 
8.277382e-01 
1.177773e+00 
1.149614e+00 
1.121605e+00 
1.093760e+00 
1.066088e+00 
1.038600e+00 
1.011308e+00 
9.842256e-01 
9.573664e-01 
9.307446e-01 
9.043756e-01 
8.782764e-01 
8.524652e-01 
8.269625e-01 
8.017906e-01 
7.769741e-01 
7.525397e-01 
7.285169e-01 
7.049379e-01 
6.818376e-01 
6.592546e-01 
6.372305e-01 
6.158110e-01 
5.950460e-01 
5.749892e-01 
5.556986e-01 
5.372370e-01 
5.196716e-01 
5.030742e-01 
4.875210e-01 
4.730920e-01 
4.598698e-01 
4.479380e-01 
4.373780e-01 
4.282679e-01 
4.206832e-01 
4.146943e-01 
4.103679e-01 
4.077848e-01 
4.072427e-01 
4.094512e-01 
4.137270e-01 
4.198186e-01 
4.276001e-01 
4.369754e-01 
4.478504e-01 
4.601293e-01 
4.737162e-01 
4.885175e-01 
5.044435e-01 
5.214092e-01 
5.393355e-01 
5.581488e-01 
5.777804e-01 
5.981672e-01 
6.192519e-01 
6.409825e-01 
6.633111e-01 
6.861937e-01 
7.095901e-01 
7.334630e-01 
7.577783e-01 
7.825045e-01 
8.076127e-01 
1.163346e+00 
1.134890e+00 
1.106575e+00 
1.078412e+00 
1.050410e+00 
1.022580e+00 
9.949327e-01 
9.674816e-01 
9.402396e-01 
9.132212e-01 
8.864417e-01 
8.599178e-01 
8.336673e-01 
8.077102e-01 
7.820685e-01 
7.567664e-01 
7.318305e-01 
7.072901e-01 
6.831777e-01 
6.595284e-01 
6.363813e-01 
6.137789e-01 
5.917680e-01 
5.703997e-01 
5.497297e-01 
5.298188e-01 
5.107332e-01 
4.925442e-01 
4.753287e-01 
4.591690e-01 
4.441523e-01 
4.303700e-01 
4.179151e-01 
4.068792e-01 
3.973507e-01 
3.894154e-01 
3.831524e-01 
3.786364e-01 
3.759571e-01 
3.754501e-01 
3.778064e-01 
3.823106e-01 
3.887136e-01 
3.968827e-01 
4.067106e-01 
4.180913e-01 
4.309176e-01 
4.450832e-01 
4.604855e-01 
4.770267e-01 
4.946154e-01 
5.131665e-01 
5.326020e-01 
5.528489e-01 
5.738416e-01 
5.955208e-01 
6.178326e-01 
6.407282e-01 
6.641626e-01 
6.880950e-01 
7.124881e-01 
7.373074e-01 
7.625218e-01 
7.881024e-01 
1.149514e+00 
1.120768e+00 
1.092152e+00 
1.063677e+00 
1.035351e+00 
1.007183e+00 
9.791862e-01 
9.513709e-01 
9.237503e-01 
8.963382e-01 
8.691499e-01 
8.422017e-01 
8.155116e-01 
7.890988e-01 
7.629847e-01 
7.371932e-01 
7.117503e-01 
6.866852e-01 
6.620300e-01 
6.378200e-01 
6.140944e-01 
5.908964e-01 
5.682735e-01 
5.462782e-01 
5.249682e-01 
5.044068e-01 
4.846634e-01 
4.658138e-01 
4.479400e-01 
4.311310e-01 
4.154817e-01 
4.010929e-01 
3.880685e-01 
3.765118e-01 
3.665238e-01 
3.582023e-01 
3.516373e-01 
3.469121e-01 
3.441266e-01 
3.436559e-01 
3.461651e-01 
3.509161e-01 
3.576600e-01 
3.662538e-01 
3.765760e-01 
3.885065e-01 
4.019245e-01 
4.167121e-01 
4.327561e-01 
4.499504e-01 
4.681963e-01 
4.874031e-01 
5.074879e-01 
5.283741e-01 
5.499934e-01 
5.722846e-01 
5.951922e-01 
6.186664e-01 
6.426616e-01 
6.671367e-01 
6.920542e-01 
7.173801e-01 
7.430832e-01 
7.691352e-01 
1.136298e+00 
1.107268e+00 
1.078359e+00 
1.049577e+00 
1.020933e+00 
9.924349e-01 
9.640933e-01 
9.359194e-01 
9.079251e-01 
8.801239e-01 
8.525303e-01 
8.251603e-01 
7.980315e-01 
7.711629e-01 
7.445754e-01 
7.182920e-01 
6.923383e-01 
6.667428e-01 
6.415371e-01 
6.167563e-01 
5.924395e-01 
5.686301e-01 
5.453762e-01 
5.227314e-01 
5.007550e-01 
4.795127e-01 
4.590769e-01 
4.395278e-01 
4.209529e-01 
4.034481e-01 
3.871170e-01 
3.720706e-01 
3.584251e-01 
3.462978e-01 
3.358045e-01 
3.270576e-01 
3.201595e-01 
3.152040e-01 
3.123023e-01 
3.118699e-01 
3.145377e-01 
3.195583e-01 
3.266781e-01 
3.357399e-01 
3.466053e-01 
3.591368e-01 
3.731980e-01 
3.886570e-01 
4.053892e-01 
4.232791e-01 
4.422206e-01 
4.621172e-01 
4.828812e-01 
5.044328e-01 
5.267012e-01 
5.496233e-01 
5.731426e-01 
5.972082e-01 
6.217743e-01 
6.467998e-01 
6.722474e-01 
6.980833e-01 
7.242770e-01 
7.508006e-01 
1.123717e+00 
1.094411e+00 
1.065215e+00 
1.036136e+00 
1.007181e+00 
9.783593e-01 
9.496805e-01 
9.211549e-01 
8.927939e-01 
8.646100e-01 
8.366169e-01 
8.088300e-01 
7.812662e-01 
7.539439e-01 
7.268838e-01 
7.001080e-01 
6.736414e-01 
6.475116e-01 
6.217494e-01 
5.963894e-01 
5.714703e-01 
5.470352e-01 
5.231326e-01 
4.998166e-01 
4.771478e-01 
4.551939e-01 
4.340303e-01 
4.137412e-01 
3.944198e-01 
3.761691e-01 
3.591022e-01 
3.433414e-01 
3.290168e-01 
3.162619e-01 
3.052102e-01 
2.959918e-01 
2.887248e-01 
2.835142e-01 
2.804854e-01 
2.800925e-01 
2.829255e-01 
2.882430e-01 
2.957793e-01 
3.053591e-01 
3.168238e-01 
3.300148e-01 
3.447769e-01 
3.609623e-01 
3.784335e-01 
3.970650e-01 
4.167429e-01 
4.373649e-01 
4.588388e-01 
4.810819e-01 
5.040215e-01 
5.275929e-01 
5.517387e-01 
5.764076e-01 
6.015538e-01 
6.271363e-01 
6.531182e-01 
6.794666e-01 
7.061515e-01 
7.331460e-01 
1.111790e+00 
1.082218e+00 
1.052744e+00 
1.023375e+00 
9.941190e-01 
9.649829e-01 
9.359757e-01 
9.071071e-01 
8.783877e-01 
8.498292e-01 
8.214445e-01 
7.932478e-01 
7.652553e-01 
7.374845e-01 
7.099550e-01 
6.826886e-01 
6.557091e-01 
6.290433e-01 
6.027210e-01 
5.767757e-01 
5.512452e-01 
5.261723e-01 
5.016049e-01 
4.775976e-01 
4.542115e-01 
4.315158e-01 
4.095888e-01 
3.885180e-01 
3.684024e-01 
3.493523e-01 
3.314904e-01 
3.149518e-01 
2.998822e-01 
2.864340e-01 
2.747620e-01 
2.650181e-01 
2.573395e-01 
2.518449e-01 
2.486764e-01 
2.483234e-01 
2.513294e-01 
2.569769e-01 
2.649773e-01 
2.751338e-01 
2.872624e-01 
3.011796e-01 
3.167074e-01 
3.336797e-01 
3.519450e-01 
3.713669e-01 
3.918238e-01 
4.132076e-01 
4.354222e-01 
4.583826e-01 
4.820144e-01 
5.062520e-01 
5.310375e-01 
5.563196e-01 
5.820530e-01 
6.081971e-01 
6.347159e-01 
6.615772e-01 
6.887521e-01 
7.162146e-01 
1.100540e+00 
1.070711e+00 
1.040969e+00 
1.011321e+00 
9.817728e-01 
9.523322e-01 
9.230068e-01 
8.938055e-01 
8.647379e-01 
8.358147e-01 
8.070480e-01 
7.784510e-01 
7.500385e-01 
7.218270e-01 
6.938349e-01 