# vtk DataFile Version 2.0 
Quadtree Mesh 
ASCII 
DATASET UNSTRUCTURED_GRID 
POINTS 4096 double 
-1.000000e+00 -1.000000e+00 0.000000e+00
-9.682540e-01 -1.000000e+00 0.000000e+00
-9.365079e-01 -1.000000e+00 0.000000e+00
-9.047619e-01 -1.000000e+00 0.000000e+00
-8.730159e-01 -1.000000e+00 0.000000e+00
-8.412698e-01 -1.000000e+00 0.000000e+00
-8.095238e-01 -1.000000e+00 0.000000e+00
-7.777778e-01 -1.000000e+00 0.000000e+00
-7.460317e-01 -1.000000e+00 0.000000e+00
-7.142857e-01 -1.000000e+00 0.000000e+00
-6.825397e-01 -1.000000e+00 0.000000e+00
-6.507937e-01 -1.000000e+00 0.000000e+00
-6.190476e-01 -1.000000e+00 0.000000e+00
-5.873016e-01 -1.000000e+00 0.000000e+00
-5.555556e-01 -1.000000e+00 0.000000e+00
-5.238095e-01 -1.000000e+00 0.000000e+00
-4.920635e-01 -1.000000e+00 0.000000e+00
-4.603175e-01 -1.000000e+00 0.000000e+00
-4.285714e-01 -1.000000e+00 0.000000e+00
-3.968254e-01 -1.000000e+00 0.000000e+00
-3.650794e-01 -1.000000e+00 0.000000e+00
-3.333333e-01 -1.000000e+00 0.000000e+00
-3.015873e-01 -1.000000e+00 0.000000e+00
-2.698413e-01 -1.000000e+00 0.000000e+00
-2.380952e-01 -1.000000e+00 0.000000e+00
-2.063492e-01 -1.000000e+00 0.000000e+00
-1.746032e-01 -1.000000e+00 0.000000e+00
-1.428571e-01 -1.000000e+00 0.000000e+00
-1.111111e-01 -1.000000e+00 0.000000e+00
-7.936508e-02 -1.000000e+00 0.000000e+00
-4.761905e-02 -1.000000e+00 0.000000e+00
-1.587302e-02 -1.000000e+00 0.000000e+00
1.587302e-02 -1.000000e+00 0.000000e+00
4.761905e-02 -1.000000e+00 0.000000e+00
7.936508e-02 -1.000000e+00 0.000000e+00
1.111111e-01 -1.000000e+00 0.000000e+00
1.428571e-01 -1.000000e+00 0.000000e+00
1.746032e-01 -1.000000e+00 0.000000e+00
2.063492e-01 -1.000000e+00 0.000000e+00
2.380952e-01 -1.000000e+00 0.000000e+00
2.698413e-01 -1.000000e+00 0.000000e+00
3.015873e-01 -1.000000e+00 0.000000e+00
3.333333e-01 -1.000000e+00 0.000000e+00
3.650794e-01 -1.000000e+00 0.000000e+00
3.968254e-01 -1.000000e+00 0.000000e+00
4.285714e-01 -1.000000e+00 0.000000e+00
4.603175e-01 -1.000000e+00 0.000000e+00
4.920635e-01 -1.000000e+00 0.000000e+00
5.238095e-01 -1.000000e+00 0.000000e+00
5.555556e-01 -1.000000e+00 0.000000e+00
5.873016e-01 -1.000000e+00 0.000000e+00
6.190476e-01 -1.000000e+00 0.000000e+00
6.507937e-01 -1.000000e+00 0.000000e+00
6.825397e-01 -1.000000e+00 0.000000e+00
7.142857e-01 -1.000000e+00 0.000000e+00
7.460317e-01 -1.000000e+00 0.000000e+00
7.777778e-01 -1.000000e+00 0.000000e+00
8.095238e-01 -1.000000e+00 0.000000e+00
8.412698e-01 -1.000000e+00 0.000000e+00
8.730159e-01 -1.000000e+00 0.000000e+00
9.047619e-01 -1.000000e+00 0.000000e+00
9.365079e-01 -1.000000e+00 0.000000e+00
9.682540e-01 -1.000000e+00 0.000000e+00
1.000000e+00 -1.000000e+00 0.000000e+00
-1.000000e+00 -9.682540e-01 0.000000e+00
-9.682540e-01 -9.682540e-01 0.000000e+00
-9.365079e-01 -9.682540e-01 0.000000e+00
-9.047619e-01 -9.682540e-01 0.000000e+00
-8.730159e-01 -9.682540e-01 0.000000e+00
-8.412698e-01 -9.682540e-01 0.000000e+00
-8.095238e-01 -9.682540e-01 0.000000e+00
-7.777778e-01 -9.682540e-01 0.000000e+00
-7.460317e-01 -9.682540e-01 0.000000e+00
-7.142857e-01 -9.682540e-01 0.000000e+00
-6.825397e-01 -9.682540e-01 0.000000e+00
-6.507937e-01 -9.682540e-01 0.000000e+00
-6.190476e-01 -9.682540e-01 0.000000e+00
-5.873016e-01 -9.682540e-01 0.000000e+00
-5.555556e-01 -9.682540e-01 0.000000e+00
-5.238095e-01 -9.682540e-01 0.000000e+00
-4.920635e-01 -9.682540e-01 0.000000e+00
-4.603175e-01 -9.682540e-01 0.000000e+00
-4.285714e-01 -9.682540e-01 0.000000e+00
-3.968254e-01 -9.682540e-01 0.000000e+00
-3.650794e-01 -9.682540e-01 0.000000e+00
-3.333333e-01 -9.682540e-01 0.000000e+00
-3.015873e-01 -9.682540e-01 0.000000e+00
-2.698413e-01 -9.682540e-01 0.000000e+00
-2.380952e-01 -9.682540e-01 0.000000e+00
-2.063492e-01 -9.682540e-01 0.000000e+00
-1.746032e-01 -9.682540e-01 0.000000e+00
-1.428571e-01 -9.682540e-01 0.000000e+00
-1.111111e-01 -9.682540e-01 0.000000e+00
-7.936508e-02 -9.682540e-01 0.000000e+00
-4.761905e-02 -9.682540e-01 0.000000e+00
-1.587302e-02 -9.682540e-01 0.000000e+00
1.587302e-02 -9.682540e-01 0.000000e+00
4.761905e-02 -9.682540e-01 0.000000e+00
7.936508e-02 -9.682540e-01 0.000000e+00
1.111111e-01 -9.682540e-01 0.000000e+00
1.428571e-01 -9.682540e-01 0.000000e+00
1.746032e-01 -9.682540e-01 0.000000e+00
2.063492e-01 -9.682540e-01 0.000000e+00
2.380952e-01 -9.682540e-01 0.000000e+00
2.698413e-01 -9.682540e-01 0.000000e+00
3.015873e-01 -9.682540e-01 0.000000e+00
3.333333e-01 -9.682540e-01 0.000000e+00
3.650794e-01 -9.682540e-01 0.000000e+00
3.968254e-01 -9.682540e-01 0.000000e+00
4.285714e-01 -9.682540e-01 0.000000e+00
4.603175e-01 -9.682540e-01 0.000000e+00
4.920635e-01 -9.682540e-01 0.000000e+00
5.238095e-01 -9.682540e-01 0.000000e+00
5.555556e-01 -9.682540e-01 0.000000e+00
5.873016e-01 -9.682540e-01 0.000000e+00
6.190476e-01 -9.682540e-01 0.000000e+00
6.507937e-01 -9.682540e-01 0.000000e+00
6.825397e-01 -9.682540e-01 0.000000e+00
7.142857e-01 -9.682540e-01 0.000000e+00
7.460317e-01 -9.682540e-01 0.000000e+00
7.777778e-01 -9.682540e-01 0.000000e+00
8.095238e-01 -9.682540e-01 0.000000e+00
8.412698e-01 -9.682540e-01 0.000000e+00
8.730159e-01 -9.682540e-01 0.000000e+00
9.047619e-01 -9.682540e-01 0.000000e+00
9.365079e-01 -9.682540e-01 0.000000e+00
9.682540e-01 -9.682540e-01 0.000000e+00
1.000000e+00 -9.682540e-01 0.000000e+00
-1.000000e+00 -9.365079e-01 0.000000e+00
-9.682540e-01 -9.365079e-01 0.000000e+00
-9.365079e-01 -9.365079e-01 0.000000e+00
-9.047619e-01 -9.365079e-01 0.000000e+00
-8.730159e-01 -9.365079e-01 0.000000e+00
-8.412698e-01 -9.365079e-01 0.000000e+00
-8.095238e-01 -9.365079e-01 0.000000e+00
-7.777778e-01 -9.365079e-01 0.000000e+00
-7.460317e-01 -9.365079e-01 0.000000e+00
-7.142857e-01 -9.365079e-01 0.000000e+00
-6.825397e-01 -9.365079e-01 0.000000e+00
-6.507937e-01 -9.365079e-01 0.000000e+00
-6.190476e-01 -9.365079e-01 0.000000e+00
-5.873016e-01 -9.365079e-01 0.000000e+00
-5.555556e-01 -9.365079e-01 0.000000e+00
-5.238095e-01 -9.365079e-01 0.000000e+00
-4.920635e-01 -9.365079e-01 0.000000e+00
-4.603175e-01 -9.365079e-01 0.000000e+00
-4.285714e-01 -9.365079e-01 0.000000e+00
-3.968254e-01 -9.365079e-01 0.000000e+00
-3.650794e-01 -9.365079e-01 0.000000e+00
-3.333333e-01 -9.365079e-01 0.000000e+00
-3.015873e-01 -9.365079e-01 0.000000e+00
-2.698413e-01 -9.365079e-01 0.000000e+00
-2.380952e-01 -9.365079e-01 0.000000e+00
-2.063492e-01 -9.365079e-01 0.000000e+00
-1.746032e-01 -9.365079e-01 0.000000e+00
-1.428571e-01 -9.365079e-01 0.000000e+00
-1.111111e-01 -9.365079e-01 0.000000e+00
-7.936508e-02 -9.365079e-01 0.000000e+00
-4.761905e-02 -9.365079e-01 0.000000e+00
-1.587302e-02 -9.365079e-01 0.000000e+00
1.587302e-02 -9.365079e-01 0.000000e+00
4.761905e-02 -9.365079e-01 0.000000e+00
7.936508e-02 -9.365079e-01 0.000000e+00
1.111111e-01 -9.365079e-01 0.000000e+00
1.428571e-01 -9.365079e-01 0.000000e+00
1.746032e-01 -9.365079e-01 0.000000e+00
2.063492e-01 -9.365079e-01 0.000000e+00
2.380952e-01 -9.365079e-01 0.000000e+00
2.698413e-01 -9.365079e-01 0.000000e+00
3.015873e-01 -9.365079e-01 0.000000e+00
3.333333e-01 -9.365079e-01 0.000000e+00
3.650794e-01 -9.365079e-01 0.000000e+00
3.968254e-01 -9.365079e-01 0.000000e+00
4.285714e-01 -9.365079e-01 0.000000e+00
4.603175e-01 -9.365079e-01 0.000000e+00
4.920635e-01 -9.365079e-01 0.000000e+00
5.238095e-01 -9.365079e-01 0.000000e+00
5.555556e-01 -9.365079e-01 0.000000e+00
5.873016e-01 -9.365079e-01 0.000000e+00
6.190476e-01 -9.365079e-01 0.000000e+00
6.507937e-01 -9.365079e-01 0.000000e+00
6.825397e-01 -9.365079e-01 0.000000e+00
7.142857e-01 -9.365079e-01 0.000000e+00
7.460317e-01 -9.365079e-01 0.000000e+00
7.777778e-01 -9.365079e-01 0.000000e+00
8.095238e-01 -9.365079e-01 0.000000e+00
8.412698e-01 -9.365079e-01 0.000000e+00
8.730159e-01 -9.365079e-01 0.000000e+00
9.047619e-01 -9.365079e-01 0.000000e+00
9.365079e-01 -9.365079e-01 0.000000e+00
9.682540e-01 -9.365079e-01 0.000000e+00
1.000000e+00 -9.365079e-01 0.000000e+00
-1.000000e+00 -9.047619e-01 0.000000e+00
-9.682540e-01 -9.047619e-01 0.000000e+00
-9.365079e-01 -9.047619e-01 0.000000e+00
-9.047619e-01 -9.047619e-01 0.000000e+00
-8.730159e-01 -9.047619e-01 0.000000e+00
-8.412698e-01 -9.047619e-01 0.000000e+00
-8.095238e-01 -9.047619e-01 0.000000e+00
-7.777778e-01 -9.047619e-01 0.000000e+00
-7.460317e-01 -9.047619e-01 0.000000e+00
-7.142857e-01 -9.047619e-01 0.000000e+00
-6.825397e-01 -9.047619e-01 0.000000e+00
-6.507937e-01 -9.047619e-01 0.000000e+00
-6.190476e-01 -9.047619e-01 0.000000e+00
-5.873016e-01 -9.047619e-01 0.000000e+00
-5.555556e-01 -9.047619e-01 0.000000e+00
-5.238095e-01 -9.047619e-01 0.000000e+00
-4.920635e-01 -9.047619e-01 0.000000e+00
-4.603175e-01 -9.047619e-01 0.000000e+00
-4.285714e-01 -9.047619e-01 0.000000e+00
-3.968254e-01 -9.047619e-01 0.000000e+00
-3.650794e-01 -9.047619e-01 0.000000e+00
-3.333333e-01 -9.047619e-01 0.000000e+00
-3.015873e-01 -9.047619e-01 0.000000e+00
-2.698413e-01 -9.047619e-01 0.000000e+00
-2.380952e-01 -9.047619e-01 0.000000e+00
-2.063492e-01 -9.047619e-01 0.000000e+00
-1.746032e-01 -9.047619e-01 0.000000e+00
-1.428571e-01 -9.047619e-01 0.000000e+00
-1.111111e-01 -9.047619e-01 0.000000e+00
-7.936508e-02 -9.047619e-01 0.000000e+00
-4.761905e-02 -9.047619e-01 0.000000e+00
-1.587302e-02 -9.047619e-01 0.000000e+00
1.587302e-02 -9.047619e-01 0.000000e+00
4.761905e-02 -9.047619e-01 0.000000e+00
7.936508e-02 -9.047619e-01 0.000000e+00
1.111111e-01 -9.047619e-01 0.000000e+00
1.428571e-01 -9.047619e-01 0.000000e+00
1.746032e-01 -9.047619e-01 0.000000e+00
2.063492e-01 -9.047619e-01 0.000000e+00
2.380952e-01 -9.047619e-01 0.000000e+00
2.698413e-01 -9.047619e-01 0.000000e+00
3.015873e-01 -9.047619e-01 0.000000e+00
3.333333e-01 -9.047619e-01 0.000000e+00
3.650794e-01 -9.047619e-01 0.000000e+00
3.968254e-01 -9.047619e-01 0.000000e+00
4.285714e-01 -9.047619e-01 0.000000e+00
4.603175e-01 -9.047619e-01 0.000000e+00
4.920635e-01 -9.047619e-01 0.000000e+00
5.238095e-01 -9.047619e-01 0.000000e+00
5.555556e-01 -9.047619e-01 0.000000e+00
5.873016e-01 -9.047619e-01 0.000000e+00
6.190476e-01 -9.047619e-01 0.000000e+00
[...]
POINT_DATA 4096 
SCALARS concentration double 1 
LOOKUP_TABLE default 
1.164268e+00 
1.143661e+00 
1.123471e+00 
1.103732e+00 
1.084482e+00 
1.065761e+00 
1.047611e+00 
1.030073e+00 
1.013195e+00 
9.970194e-01 
9.815874e-01 
9.669350e-01 
9.531015e-01 
9.401293e-01 
9.280601e-01 
9.169321e-01 
9.067810e-01 
8.976373e-01 
8.895299e-01 
8.824786e-01 
8.765029e-01 
8.716089e-01 
8.678098e-01 
8.650994e-01 
8.634890e-01 
8.629592e-01 
8.635226e-01 
8.651494e-01 
8.678543e-01 
8.716036e-01 
8.764091e-01 
8.822463e-01 
8.891152e-01 
8.969951e-01 
9.058648e-01 
9.157024e-01 
9.264860e-01 
9.381931e-01 
9.508010e-01 
9.642867e-01 
9.786269e-01 
9.937982e-01 
1.009777e+00 
1.026538e+00 
1.044057e+00 
1.062308e+00 
1.081264e+00 
1.100895e+00 
1.121171e+00 
1.142059e+00 
1.163522e+00 
1.185525e+00 
1.208024e+00 
1.230979e+00 
1.254341e+00 
1.278063e+00 
1.302091e+00 
1.326371e+00 
1.350845e+00 
1.375452e+00 
1.400128e+00 
1.424807e+00 
1.449420e+00 
1.473896e+00 
1.137431e+00 
1.116296e+00 
1.095570e+00 
1.075291e+00 
1.055502e+00 
1.036248e+00 
1.017572e+00 
9.995184e-01 
9.821411e-01 
9.654862e-01 
9.495930e-01 
9.344947e-01 
9.202351e-01 
9.068659e-01 
8.944371e-01 
8.829917e-01 
8.725696e-01 
8.631992e-01 
8.549151e-01 
8.477247e-01 
8.416590e-01 
8.366953e-01 
8.328799e-01 
8.301453e-01 
8.285853e-01 
8.280488e-01 
8.287254e-01 
8.303277e-01 
8.332064e-01 
8.368725e-01 
8.419059e-01 
8.475494e-01 
8.546759e-01 
8.628254e-01 
8.719759e-01 
8.821054e-01 
8.931916e-01 
9.052117e-01 
9.181430e-01 
9.319622e-01 
9.466459e-01 
9.621703e-01 
9.785114e-01 
9.956447e-01 
1.013545e+00 
1.032186e+00 
1.051542e+00 
1.071582e+00 
1.092276e+00 
1.113593e+00 
1.135496e+00 
1.157948e+00 
1.180908e+00 
1.204335e+00 
1.228180e+00 
1.252397e+00 
1.276933e+00 
1.301733e+00 
1.326739e+00 
1.351891e+00 
1.377125e+00 
1.402376e+00 
1.427575e+00 
1.452652e+00 
1.110759e+00 
1.089081e+00 
1.067812e+00 
1.046992e+00 
1.026666e+00 
1.006881e+00 
9.876858e-01 
9.691300e-01 
9.512676e-01 
9.341441e-01 
9.177999e-01 
9.022691e-01 
8.876066e-01 
8.738749e-01 
8.611330e-01 
8.494312e-01 
8.388105e-01 
8.292991e-01 
8.209217e-01 
8.136875e-01 
8.076084e-01 
8.026794e-01 
7.989065e-01 
7.962763e-01 
7.947927e-01 
7.944313e-01 
7.951976e-01 
7.970553e-01 
8.000155e-01 
8.040292e-01 
8.091145e-01 
8.152096e-01 
8.223288e-01 
8.304214e-01 
8.394997e-01 
8.495354e-01 
8.605336e-01 
8.725548e-01 
8.855694e-01 
8.995773e-01 
9.145260e-01 
9.303643e-01 
9.470600e-01 
9.645805e-01 
9.828930e-01 
1.001965e+00 
1.021766e+00 
1.042262e+00 
1.063422e+00 
1.085211e+00 
1.107594e+00 
1.130533e+00 
1.153989e+00 
1.177920e+00 
1.202277e+00 
1.227017e+00 
1.252072e+00 
1.277392e+00 
1.302924e+00 
1.328612e+00 
1.354394e+00 
1.380203e+00 
1.405974e+00 
1.431641e+00 
1.084279e+00 
1.062045e+00 
1.040218e+00 
1.018843e+00 
9.979646e-01 
9.776341e-01 
9.579076e-01 
9.388378e-01 
9.204745e-01 
9.028633e-01 
8.860481e-01 
8.700695e-01 
8.549999e-01 
8.409139e-01 
8.278809e-01 
8.159576e-01 
8.051818e-01 
7.955740e-01 
7.871474e-01 
7.799036e-01 
7.738460e-01 
7.689669e-01 
7.652665e-01 
7.627328e-01 
7.613644e-01 
7.611412e-01 
7.620630e-01 
7.640992e-01 
7.672526e-01 
7.714862e-01 
7.767975e-01 
7.831510e-01 
7.905242e-01 
7.989067e-01 
8.082307e-01 
8.185476e-01 
8.297273e-01 
8.418772e-01 
8.548705e-01 
8.688046e-01 
8.836437e-01 
8.994044e-01 
9.161906e-01 
9.339141e-01 
9.525427e-01 
9.719792e-01 
9.922445e-01 
1.013210e+00 
1.034843e+00 
1.057114e+00 
1.079984e+00 
1.103418e+00 
1.127373e+00 
1.151812e+00 
1.176680e+00 
1.201946e+00 
1.227523e+00 
1.253365e+00 
1.279420e+00 
1.305636e+00 
1.331955e+00 
1.358314e+00 
1.384644e+00 
1.410894e+00 
1.058016e+00 
1.035212e+00 
1.012814e+00 
9.908693e-01 
9.694234e-01 
9.485344e-01 
9.282654e-01 
9.086678e-01 
8.897837e-01 
8.716622e-01 
8.543567e-01 
8.379235e-01 
8.224563e-01 
8.080402e-01 
7.947568e-01 
7.826640e-01 
7.717865e-01 
7.621291e-01 
7.536895e-01 
7.464612e-01 
7.404396e-01 
7.356175e-01 
7.319899e-01 
7.295517e-01 
7.282922e-01 
7.282068e-01 
7.292762e-01 
7.314949e-01 
7.348381e-01 
7.392982e-01 
7.448407e-01 
7.514602e-01 
7.591067e-01 
7.677789e-01 
7.774158e-01 
7.880255e-01 
7.995471e-01 
8.119777e-01 
8.252849e-01 
8.394212e-01 
8.544355e-01 
8.702441e-01 
8.869592e-01 
9.045365e-01 
9.230600e-01 
9.425886e-01 
9.630723e-01 
9.843952e-01 
1.006536e+00 
1.029310e+00 
1.052681e+00 
1.076622e+00 
1.101082e+00 
1.126030e+00 
1.151402e+00 
1.177195e+00 
1.203306e+00 
1.229678e+00 
1.256261e+00 
1.283004e+00 
1.309851e+00 
1.336745e+00 
1.363620e+00 
1.390445e+00 
1.031994e+00 
1.008606e+00 
9.856241e-01 
9.630943e-01 
9.410654e-01 
9.196060e-01 
8.987826e-01 
8.786386e-01 
8.592089e-01 
8.405539e-01 
8.227465e-01 
8.058689e-01 
7.900325e-01 
7.753311e-01 
7.618592e-01 
7.496619e-01 
7.387358e-01 
7.290631e-01 
7.206275e-01 
7.134171e-01 
7.074243e-01 
7.026447e-01 
6.990745e-01 
6.967126e-01 
6.955490e-01 
6.955849e-01 
6.967958e-01 
6.991883e-01 
7.027232e-01 
7.074083e-01 
7.131943e-01 
7.200826e-01 
7.280219e-01 
7.369949e-01 
7.469642e-01 
7.578946e-01 
7.697768e-01 
7.825373e-01 
7.962183e-01 
8.106894e-01 
8.260339e-01 
8.421326e-01 
8.590273e-01 
8.767396e-01 
8.952049e-01 
9.146107e-01 
9.349059e-01 
9.562303e-01 
9.785613e-01 
1.001754e+00 
1.025674e+00 
1.050147e+00 
1.075137e+00 
1.100612e+00 
1.126488e+00 
1.152783e+00 
1.179424e+00 
1.206332e+00 
1.233452e+00 
1.260728e+00 
1.288106e+00 
1.315529e+00 
1.342937e+00 
1.370327e+00 
1.006243e+00 
9.822575e-01 
9.586758e-01 
9.355440e-01 
9.129170e-01 
8.908755e-01 
8.694803e-01 
8.487639e-01 
8.287606e-01 
8.095536e-01 
7.912489e-01 
7.739596e-01 
7.578020e-01 
7.428814e-01 
7.292999e-01 
7.170618e-01 
7.061201e-01 
6.964381e-01 
6.879938e-01 
6.807771e-01 
6.747845e-01 
6.700169e-01 
6.664755e-01 
6.641632e-01 
6.630746e-01 
6.632121e-01 
6.645555e-01 
6.671109e-01 
6.708392e-01 
6.757493e-01 
6.817878e-01 
6.889562e-01 
6.972009e-01 
7.064977e-01 
7.168103e-01 
7.280978e-01 
7.403509e-01 
7.534899e-01 
7.675569e-01 
7.824132e-01 
7.981635e-01 
8.146327e-01 
8.319050e-01 
8.498842e-01 
8.686214e-01 
8.880509e-01 
9.083248e-01 
9.294653e-01 
9.515608e-01 
9.747736e-01 
9.989701e-01 
1.023948e+00 
1.049500e+00 
1.075548e+00 
1.101986e+00 
1.128790e+00 
1.155949e+00 
1.183383e+00 
1.211032e+00 
1.238841e+00 
1.266750e+00 
1.294703e+00 
1.322641e+00 
1.350580e+00 
9.807886e-01 
9.561930e-01 
9.319974e-01 
9.082454e-01 
8.850065e-01 
8.623687e-01 
8.403764e-01 
8.190553e-01 
7.984531e-01 
7.786897e-01 
7.599169e-01 
7.422692e-01 
7.258556e-01 
7.108011e-01 
6.971894e-01 
6.849456e-01 
6.739787e-01 
6.642531e-01 
6.557561e-01 
6.484875e-01 
6.424517e-01 
6.376572e-01 
6.341112e-01 
6.318210e-01 
6.307865e-01 
6.310100e-01 
6.324778e-01 
6.351905e-01 
6.391157e-01 
6.442545e-01 
6.505567e-01 
6.580188e-01 
6.665837e-01 
6.762285e-01 
6.869035e-01 
6.985786e-01 
7.112215e-01 
7.247749e-01 
7.392463e-01 
7.545302e-01 
7.706840e-01 
7.875888e-01 
8.052761e-01 
8.236667e-01 
8.427768e-01 
8.625380e-01 
8.829581e-01 
9.041622e-01 
9.261392e-01 
9.490274e-01 
9.730993e-01 
9.982445e-01 
1.024211e+00 
1.050800e+00 
1.077833e+00 
1.105211e+00 
1.132908e+00 
1.160869e+00 
1.189044e+00 
1.217380e+00 
1.245817e+00 
1.274297e+00 
1.302759e+00 
1.331233e+00 
9.559831e-01 
9.307704e-01 
9.059490e-01 
8.815652e-01 
8.577094e-01 
8.344627e-01 
8.118461e-01 
7.898945e-01 
7.686878e-01 
7.483975e-01 
7.292201e-01 
7.112869e-01 
6.947061e-01 
6.796195e-01 
6.660324e-01 
6.537596e-01 
6.427018e-01 
6.328621e-01 
6.242460e-01 
6.168656e-01 
6.107339e-01 
6.058670e-01 
6.022780e-01 
5.999783e-01 
5.989725e-01 
5.992631e-01 
6.008416e-01 
6.037034e-01 
6.078225e-01 
6.131896e-01 
6.197605e-01 
6.275240e-01 
6.364225e-01 
6.464313e-01 
6.574906e-01 
6.695805e-01 
6.826452e-01 
6.966486e-01 
7.115539e-01 
7.273037e-01 
7.438827e-01 
7.612403e-01 
7.793489e-01 
7.981769e-01 
8.176931e-01 
8.378696e-01 
8.586480e-01 
8.800657e-01 
9.022009e-01 
9.250098e-01 
9.487317e-01 
9.736769e-01 
9.997367e-01 
1.026658e+00 
1.054223e+00 
1.082186e+00 
1.110449e+00 
1.138952e+00 
1.167653e+00 
1.196507e+00 
1.225461e+00 
1.254456e+00 
1.283431e+00 
1.312448e+00 
9.312710e-01 
9.054240e-01 
8.799534e-01 
8.549178e-01 
8.304293e-01 
8.065402e-01 
7.832562e-01 
7.606475e-01 
7.388457e-01 
7.180799e-01 
6.985705e-01 
6.804354e-01 
6.638809e-01 
6.488833e-01 
6.352178e-01 
6.227564e-01 
6.115052e-01 
6.014737e-01 
5.926751e-01 
5.851300e-01 
5.788588e-01 
5.738840e-01 
5.702244e-01 
5.678954e-01 
5.669051e-01 
5.672571e-01 
5.689459e-01 
5.719634e-01 
5.762871e-01 
5.819001e-01 
5.887610e-01 
5.968482e-01 
6.061071e-01 
6.165046e-01 
6.279819e-01 
6.405144e-01 
6.540409e-01 
6.685261e-01 
6.839189e-01 
7.001764e-01 
7.172556e-01 
7.351150e-01 
7.537070e-01 
7.730022e-01 
7.929601e-01 
8.135622e-01 
8.347781e-01 
8.565518e-01 
8.789573e-01 
9.019977e-01 
9.256354e-01 
9.502279e-01 
9.760598e-01 
1.003025e+00 
1.030884e+00 
1.059379e+00 
1.088221e+00 
1.117295e+00 
1.146548e+00 
1.175933e+00 
1.205404e+00 
1.234909e+00 
1.264393e+00 
1.293954e+00 
9.069732e-01 
8.804801e-01 
8.543365e-01 
8.286371e-01 
8.035012e-01 
7.789310e-01 
7.549444e-01 
7.316771e-01 
7.093296e-01 
6.881762e-01 
6.684426e-01 
6.503648e-01 
6.339455e-01 
6.188183e-01 
6.048936e-01 
5.921684e-01 
5.806559e-01 
5.703699e-01 
5.613332e-01 
5.535753e-01 
5.471234e-01 
5.420070e-01 
5.382502e-01 
5.358724e-01 
5.348844e-01 
5.352913e-01 
5.370889e-01 
5.402675e-01 
5.448062e-01 
5.506810e-01 
5.578515e-01 
5.662866e-01 
5.759338e-01 
5.867496e-01 
5.986768e-01 
6.116812e-01 
6.257026e-01 
6.406993e-01 
6.566124e-01 
6.734035e-01 
6.910155e-01 
7.093971e-01 
7.285192e-01 
7.483273e-01 
7.687800e-01 
7.898477e-01 
8.115193e-01 
8.337271e-01 
8.564803e-01 
8.798371e-01 
9.037315e-01 
9.281964e-01 
9.536966e-01 
9.804439e-01 
1.008339e+00 
1.037117e+00 
1.066499e+00 
1.096134e+00 
1.125944e+00 
1.155874e+00 
1.185873e+00 
1.215893e+00 
1.245881e+00 
1.275962e+00 
8.831265e-01 
8.559764e-01 
8.291307e-01 
8.027584e-01 
7.769511e-01 
7.516533e-01 
7.269429e-01 
7.030452e-01 
6.802375e-01 
6.588742e-01 
6.392459e-01 
6.212918e-01 
6.046620e-01 
5.892262e-01 
5.749843e-01 
5.619355e-01 
5.501019e-01 
5.395046e-01 
5.301798e-01 
5.221650e-01 
5.154948e-01 
5.102063e-01 
5.063285e-01 
5.038849e-01 
5.028889e-01 
5.033466e-01 
5.052548e-01 
5.086034e-01 
5.133706e-01 
5.195267e-01 
5.270312e-01 
5.358437e-01 
5.459114e-01 
5.571783e-01 
5.695887e-01 
5.830982e-01 
5.976479e-01 
6.131864e-01 
6.296546e-01 
6.470008e-01 
6.651724e-01 
6.841056e-01 
7.037782e-01 
7.241287e-01 
7.451095e-01 
7.666895e-01 
7.888488e-01 
8.115369e-01 
8.347093e-01 
8.584238e-01 
8.826794e-01 
9.073641e-01 
9.326830e-01 
9.591136e-01 
9.868145e-01 
1.015637e+00 
1.045316e+00 
1.075485e+00 
1.105851e+00 
1.136331e+00 
1.166863e+00 
1.197399e+00 
1.227889e+00 
1.258489e+00 
8.597717e-01 
8.319540e-01 
8.044028e-01 
7.773355e-01 
7.507989e-01 
7.247287e-01 
6.992989e-01 
6.748354e-01 
6.518063e-01 
6.305603e-01 
6.110057e-01 
5.928218e-01 
5.758628e-01 
5.600693e-01 
5.454521e-01 
5.320203e-01 
5.198079e-01 
5.088463e-01 
4.991870e-01 
4.908741e-01 
4.839507e-01 
4.784617e-01 
4.744415e-01 
4.719174e-01 
4.709057e-01 
4.714133e-01 
4.734377e-01 
4.769685e-01 
4.819806e-01 
4.884420e-01 
4.963084e-01 
5.055322e-01 
5.160549e-01 
5.278100e-01 
5.407400e-01 
5.547912e-01 
5.699040e-01 
5.860169e-01 
6.030698e-01 
6.209978e-01 
6.397523e-01 
6.592662e-01 
6.795080e-01 
7.004233e-01 
7.219525e-01 
7.440662e-01 
7.667376e-01 
7.899285e-01 
8.135752e-01 
8.376938e-01 
8.623410e-01 
8.874025e-01 
9.128719e-01 
9.390765e-01 
9.664997e-01 
9.951696e-01 
1.024931e+00 
1.055442e+00 
1.086298e+00 
1.117307e+00 
1.148376e+00 
1.179435e+00 
1.210431e+00 
1.241553e+00 
8.369548e-01 
8.084599e-01 
7.801787e-01 
7.523894e-01 
7.250578e-01 
6.981926e-01 
6.720844e-01 
6.473264e-01 
6.243603e-01 
6.031680e-01 
5.833933e-01 
5.648927e-01 
5.475493e-01 
5.313327e-01 
5.162754e-01 
5.023992e-01 
4.897507e-01 
4.783739e-01 
4.683357e-01 
4.596846e-01 
4.524743e-01 
4.467574e-01 
4.425742e-01 
4.399575e-01 
4.389259e-01 
4.394865e-01 
4.416378e-01 
4.453666e-01 
4.506457e-01 
4.574397e-01 
4.656993e-01 
4.753690e-01 
4.863829e-01 
4.986677e-01 
5.121572e-01 
5.267901e-01 
5.425011e-01 
5.592218e-01 
5.768858e-01 
5.954257e-01 
6.147874e-01 
6.349071e-01 
6.557403e-01 
6.772431e-01 
6.993495e-01 
7.220182e-01 
7.452241e-01 
7.689320e-01 
7.930812e-01 
8.176477e-01 
8.426979e-01 
8.681835e-01 
8.939932e-01 
9.202550e-01 
9.474000e-01 
9.758283e-01 
1.005509e+00 
1.036178e+00 
1.067442e+00 
1.098918e+00 
1.130483e+00 
1.162046e+00 
1.193539e+00 
1.225180e+00 
8.147307e-01 
7.855501e-01 
7.565273e-01 
7.279440e-01 
6.997788e-01 
6.721392e-01 
6.456261e-01 
6.208218e-01 
5.978932e-01 
5.765025e-01 
5.564545e-01 
5.375473e-01 
5.197235e-01 
5.030115e-01 
4.874480e-01 
4.730658e-01 
4.599237e-01 
4.480810e-01 
4.376180e-01 
4.285864e-01 
4.210535e-01 
4.150789e-01 
4.107117e-01 
4.079912e-01 
4.069379e-01 
4.075589e-01 
4.098527e-01 
4.138019e-01 
4.193777e-01 
4.265368e-01 
4.352259e-01 
4.453764e-01 
4.569212e-01 
4.697764e-01 
4.838711e-01 
4.991252e-01 
5.154733e-01 
5.328356e-01 
5.511418e-01 
5.703227e-01 
5.903187e-01 
6.110657e-01 
6.325092e-01 
6.546091e-01 
6.773075e-01 
7.005492e-01 
7.243067e-01 
7.485499e-01 
7.732216e-01 
7.982720e-01 
8.237481e-01 
8.496610e-01 
8.758901e-01 
9.024109e-01 
9.295212e-01 
9.576566e-01 
9.871210e-01 
1.017784e+00 
1.049281e+00 
1.081178e+00 
1.113207e+00 
1.145255e+00 
1.177233e+00 
1.209398e+00 
7.931537e-01 
7.632796e-01 
7.335119e-01 
7.041039e-01 
6.751063e-01 
6.468660e-01 
6.201493e-01 
5.953794e-01 
5.723453e-01 
5.507155e-01 
5.302046e-01 
5.107678e-01 
4.923945e-01 
4.751250e-01 
4.589926e-01 
4.440434e-01 
4.303501e-01 
4.179893e-01 
4.070516e-01 
3.975928e-01 
3.896961e-01 
3.834284e-01 
3.788521e-01 
3.760133e-01 
3.749335e-01 
3.756216e-01 
3.780747e-01 
3.822713e-01 
3.881780e-01 
3.957434e-01 
4.049048e-01 
4.155854e-01 
4.277052e-01 
4.411717e-01 
4.559093e-01 
4.718283e-01 
4.888525e-01 
5.068968e-01 
5.258843e-01 
5.457419e-01 
5.664053e-01 
5.878092e-01 
6.098920e-01 
6.326081e-01 
6.559086e-01 
6.797359e-01 
7.040529e-01 
7.288391e-01 
7.540428e-01 
7.795989e-01 
8.055281e-01 
8.318724e-01 
8.585430e-01 
8.854323e-01 
9.126947e-01 
9.407101e-01 
9.699079e-01 
1.000430e+00 
1.032008e+00 
1.064218e+00 
1.096648e+00 
1.129138e+00 
1.161574e+00 
1.194246e+00 
7.725578e-01 
7.419948e-01 
7.114225e-01 
6.812055e-01 
6.514827e-01 
6.228540e-01 
5.960917e-01 
5.713227e-01 
5.481093e-01 
5.260352e-01 
5.050025e-01 
4.849849e-01 
4.660066e-01 
4.481241e-01 
4.313685e-01 
4.157997e-01 
4.015050e-01 
3.885791e-01 
3.771189e-01 
3.671868e-01 
3.588838e-01 
3.522861e-01 
3.474733e-01 
3.444961e-01 
3.433781e-01 
3.441314e-01 
3.467501e-01 
3.512097e-01 
3.574679e-01 
3.654692e-01 
3.751328e-01 
3.863802e-01 
3.991151e-01 
4.132384e-01 
4.286516e-01 
4.452621e-01 
4.629838e-01 
4.817286e-01 
5.014184e-01 
5.219719e-01 
5.433179e-01 
5.653909e-01 
5.881282e-01 
6.114750e-01 
6.353849e-01 
6.598020e-01 
6.846797e-01 
7.100032e-01 
7.357344e-01 
7.617993e-01 
7.881939e-01 
8.149706e-01 
8.420807e-01 
8.693869e-01 
8.969245e-01 
9.249960e-01 
9.539893e-01 
9.843020e-01 
1.015842e+00 
1.048223e+00 
1.080992e+00 
1.113871e+00 
1.146728e+00 
1.179879e+00 
7.523889e-01 
7.211202e-01 
6.897609e-01 
6.587126e-01 
6.283601e-01 
5.994728e-01 
5.727829e-01 
5.479204e-01 
5.243012e-01 
5.017088e-01 
4.800740e-01 
4.594099e-01 
4.397529e-01 
4.211637e-01 
4.037116e-01 
3.874618e-01 
3.725068e-01 
3.589591e-01 
3.469207e-01 
3.364637e-01 
3.277091e-01 
3.207464e-01 
3.156755e-01 
3.125485e-01 
3.113946e-01 
3.122302e-01 
3.150439e-01 
3.198073e-01 
3.264698e-01 
3.349648e-01 
3.452003e-01 
3.570824e-01 
3.704969e-01 
3.853375e-01 
4.014951e-01 
4.188660e-01 
4.373557e-01 
4.568636e-01 
4.772999e-01 
4.985849e-01 
5.206443e-01 
5.434119e-01 
5.668258e-01 
5.908260e-01 
6.153636e-01 
6.403854e-01 
6.658383e-01 
6.917061e-01 
7.179661e-01 
7.445445e-01 
7.714143e-01 
7.986295e-01 
8.261768e-01 
8.539176e-01 
8.818098e-01 
9.100622e-01 
9.390213e-01 
9.690854e-01 
1.000505e+00 
1.032961e+00 
1.066003e+00 
1.099226e+00 
1.132464e+00 
1.166084e+00 
7.330078e-01 
7.010286e-01 
6.688483e-01 
6.370408e-01 
6.061826e-01 
5.772564e-01 
5.505714e-01 
5.253806e-01 
5.012772e-01 
4.780863e-01 
4.557908e-01 
4.344215e-01 
4.140226e-01 
3.946886e-01 
3.764995e-01 
3.595136e-01 
3.438404e-01 
3.296117e-01 
3.169349e-01 
3.058962e-01 
2.966393e-01 
2.892722e-01 
2.839146e-01 
2.806179e-01 
2.794247e-01 
2.803524e-01 
2.833840e-01 
2.884884e-01 
2.956041e-01 
3.046521e-01 
3.155217e-01 
3.281007e-01 
3.422599e-01 
3.578775e-01 
3.748374e-01 
3.930227e-01 
4.123254e-01 
4.326367e-01 
4.538583e-01 
4.759091e-01 
4.987102e-01 
5.221908e-01 
5.462911e-01 
5.709516e-01 
5.961228e-01 
6.217543e-01 
6.477903e-01 
6.742094e-01 
7.009979e-01 
7.280873e-01 
7.554339e-01 
7.830870e-01 
8.110601e-01 
8.392200e-01 
8.675007e-01 
8.960118e-01 
9.250548e-01 
9.549921e-01 
9.862289e-01 
1.018659e+00 
1.051861e+00 
1.085377e+00 
1.118957e+00 
1.153026e+00 
7.144682e-01 
6.817751e-01 
6.487907e-01 
6.162754e-01 
5.850777e-01 
5.562665e-01 
5.294189e-01 
5.038239e-01 
4.791429e-01 
4.552984e-01 
4.322930e-01 
4.101654e-01 
3.889870e-01 
3.688258e-01 
3.497911e-01 
3.320079e-01 
3.155536e-01 
3.005779e-01 
2.871968e-01 
2.755130e-01 
2.656980e-01 
2.578827e-01 
2.522030e-01 
2.487134e-01 
2.474770e-01 
2.485065e-01 
2.517845e-01 
2.572759e-01 
2.649057e-01 
2.745739e-01 
2.861506e-01 
2.994977e-01 
3.144735e-01 
3.309405e-01 
3.487655e-01 
3.678187e-01 
3.879798e-01 
4.091348e-01 
4.311749e-01 
4.540143e-01 
4.775754e-01 
5.017845e-01 
5.265814e-01 
5.519097e-01 
5.777196e-01 
6.039621e-01 
6.305831e-01 
6.575562e-01 
6.848695e-01 
7.124646e-01 
7.402882e-01 
7.683775e-01 
7.967647e-01 
8.253292e-01 
8.540011e-01 
8.828219e-01 
9.120333e-01 
9.419633e-01 
9.730033e-01 
1.005361e+00 
1.038652e+00 
1.072406e+00 
1.106264e+00 
1.140749e+00 
6.968246e-01 
6.634162e-01 
6.296345e-01 
5.965099e-01 
5.651834e-01 
5.364481e-01 
5.093437e-01 
4.832326e-01 
4.579202e-01 
4.333806e-01 
4.096159e-01 
3.866838e-01 
3.646425e-01 
3.436234e-01 
3.237027e-01 
3.050146e-01 
2.877089e-01 
2.719129e-01 
2.577552e-01 
2.453556e-01 
2.349194e-01 
2.266037e-01 
2.205569e-01 
2.168467e-01 
2.155606e-01 
2.167032e-01 
2.202656e-01 
2.262022e-01 
2.344183e-01 
2.447851e-01 
2.571520e-01 
2.713513e-01 
2.872262e-01 
3.046153e-01 
3.233679e-01 
3.433452e-01 
3.644092e-01 
3.864361e-01 
4.093186e-01 
4.329689e-01 
4.573115e-01 
4.822684e-01 
5.077734e-01 
5.337741e-01 
5.602229e-01 
5.870716e-01 
6.142703e-01 
6.417897e-01 
6.696160e-01 
6.977014e-01 
7.259937e-01 
7.545144e-01 
7.833041e-01 
8.122595e-01 
8.413105e-01 
8.704636e-01 
8.999031e-01 
9.299157e-01 
9.608572e-01 
9.930868e-01 
1.026401e+00 
1.060335e+00 
1.094430e+00 
1.129294e+00 
6.801335e-01 
6.460107e-01 
6.114661e-01 
5.778667e-01 
5.466304e-01 
5.178596e-01 
4.903582e-01 
4.636737e-01 
4.376927e-01 
4.124248e-01 
3.878687e-01 
3.641069e-01 
3.411948e-01 
3.192235e-01 
2.983539e-01 
2.786933e-01 
2.603964e-01 
2.436906e-01 
2.286774e-01 
2.154821e-01 
2.043515e-01 
1.954701e-01 
1.890000e-01 
1.850356e-01 
1.836890e-01 
1.849605e-01 
1.888570e-01 
1.953096e-01 
2.041949e-01 
2.153553e-01 
2.286051e-01 
2.437533e-01 
2.606129e-01 
2.790016e-01 
2.987457e-01 
3.196904e-01 
3.416935e-01 
3.646278e-01 
3.883868e-01 
4.128772e-01 
4.380172e-01 
4.637297e-01 
4.899447e-01 
5.166124e-01 
5.436921e-01 
5.711373e-01 
5.989007e-01 
6.269525e-01 
6.552751e-01 
6.838305e-01 
7.125748e-01 
7.415178e-01 
7.706974e-01 
8.000290e-01 
8.294437e-01 
8.589332e-01 
8.886374e-01 
9.187973e-01 
9.497355e-01 
9.818417e-01 
1.015135e+00 
1.049186e+00 
1.083479e+00 
1.118695e+00 
6.644549e-01 
6.296218e-01 
5.943718e-01 
5.604553e-01 
5.293993e-01 
5.004391e-01 
4.724879e-01 
4.451969e-01 
4.185230e-01 
3.924928e-01 
3.671276e-01 
3.424901e-01 
3.186503e-01 
2.957334e-01 
2.738403e-01 