# vtk DataFile Version 2.0 
Quadtree Mesh 
ASCII 
DATASET UNSTRUCTURED_GRID 
POINTS 4096 double 
-1.000000e+00 -1.000000e+00 0.000000e+00
-9.682540e-01 -1.000000e+00 0.000000e+00
-9.365079e-01 -1.000000e+00 0.000000e+00
-9.047619e-01 -1.000000e+00 0.000000e+00
-8.730159e-01 -1.000000e+00 0.000000e+00
-8.412698e-01 -1.000000e+00 0.000000e+00
-8.095238e-01 -1.000000e+00 0.000000e+00
-7.777778e-01 -1.000000e+00 0.000000e+00
-7.460317e-01 -1.000000e+00 0.000000e+00
-7.142857e-01 -1.000000e+00 0.000000e+00
-6.825397e-01 -1.000000e+00 0.000000e+00
-6.507937e-01 -1.000000e+00 0.000000e+00
-6.190476e-01 -1.000000e+00 0.000000e+00
-5.873016e-01 -1.000000e+00 0.000000e+00
-5.555556e-01 -1.000000e+00 0.000000e+00
-5.238095e-01 -1.000000e+00 0.000000e+00
-4.920635e-01 -1.000000e+00 0.000000e+00
-4.603175e-01 -1.000000e+00 0.000000e+00
-4.285714e-01 -1.000000e+00 0.000000e+00
-3.968254e-01 -1.000000e+00 0.000000e+00
-3.650794e-01 -1.000000e+00 0.000000e+00
-3.333333e-01 -1.000000e+00 0.000000e+00
-3.015873e-01 -1.000000e+00 0.000000e+00
-2.698413e-01 -1.000000e+00 0.000000e+00
-2.380952e-01 -1.000000e+00 0.000000e+00
-2.063492e-01 -1.000000e+00 0.000000e+00
-1.746032e-01 -1.000000e+00 0.000000e+00
-1.428571e-01 -1.000000e+00 0.000000e+00
-1.111111e-01 -1.000000e+00 0.000000e+00
-7.936508e-02 -1.000000e+00 0.000000e+00
-4.761905e-02 -1.000000e+00 0.000000e+00
-1.587302e-02 -1.000000e+00 0.000000e+00
1.587302e-02 -1.000000e+00 0.000000e+00
4.761905e-02 -1.000000e+00 0.000000e+00
7.936508e-02 -1.000000e+00 0.000000e+00
1.111111e-01 -1.000000e+00 0.000000e+00
1.428571e-01 -1.000000e+00 0.000000e+00
1.746032e-01 -1.000000e+00 0.000000e+00
2.063492e-01 -1.000000e+00 0.000000e+00
2.380952e-01 -1.000000e+00 0.000000e+00
2.698413e-01 -1.000000e+00 0.000000e+00
3.015873e-01 -1.000000e+00 0.000000e+00
3.333333e-01 -1.000000e+00 0.000000e+00
3.650794e-01 -1.000000e+00 0.000000e+00
3.968254e-01 -1.000000e+00 0.000000e+00
4.285714e-01 -1.000000e+00 0.000000e+00
4.603175e-01 -1.000000e+00 0.000000e+00
4.920635e-01 -1.000000e+00 0.000000e+00
5.238095e-01 -1.000000e+00 0.000000e+00
5.555556e-01 -1.000000e+00 0.000000e+00
5.873016e-01 -1.000000e+00 0.000000e+00
6.190476e-01 -1.000000e+00 0.000000e+00
6.507937e-01 -1.000000e+00 0.000000e+00
6.825397e-01 -1.000000e+00 0.000000e+00
7.142857e-01 -1.000000e+00 0.000000e+00
7.460317e-01 -1.000000e+00 0.000000e+00
7.777778e-01 -1.000000e+00 0.000000e+00
8.095238e-01 -1.000000e+00 0.000000e+00
8.412698e-01 -1.000000e+00 0.000000e+00
8.730159e-01 -1.000000e+00 0.000000e+00
9.047619e-01 -1.000000e+00 0.000000e+00
9.365079e-01 -1.000000e+00 0.000000e+00
9.682540e-01 -1.000000e+00 0.000000e+00
1.000000e+00 -1.000000e+00 0.000000e+00
-1.000000e+00 -9.682540e-01 0.000000e+00
-9.682540e-01 -9.682540e-01 0.000000e+00
-9.365079e-01 -9.682540e-01 0.000000e+00
-9.047619e-01 -9.682540e-01 0.000000e+00
-8.730159e-01 -9.682540e-01 0.000000e+00
-8.412698e-01 -9.682540e-01 0.000000e+00
-8.095238e-01 -9.682540e-01 0.000000e+00
-7.777778e-01 -9.682540e-01 0.000000e+00
-7.460317e-01 -9.682540e-01 0.000000e+00
-7.142857e-01 -9.682540e-01 0.000000e+00
-6.825397e-01 -9.682540e-01 0.000000e+00
-6.507937e-01 -9.682540e-01 0.000000e+00
-6.190476e-01 -9.682540e-01 0.000000e+00
-5.873016e-01 -9.682540e-01 0.000000e+00
-5.555556e-01 -9.682540e-01 0.000000e+00
-5.238095e-01 -9.682540e-01 0.000000e+00
-4.920635e-01 -9.682540e-01 0.000000e+00
-4.603175e-01 -9.682540e-01 0.000000e+00
-4.285714e-01 -9.682540e-01 0.000000e+00
-3.968254e-01 -9.682540e-01 0.000000e+00
-3.650794e-01 -9.682540e-01 0.000000e+00
-3.333333e-01 -9.682540e-01 0.000000e+00
-3.015873e-01 -9.682540e-01 0.000000e+00
-2.698413e-01 -9.682540e-01 0.000000e+00
-2.380952e-01 -9.682540e-01 0.000000e+00
-2.063492e-01 -9.682540e-01 0.000000e+00
-1.746032e-01 -9.682540e-01 0.000000e+00
-1.428571e-01 -9.682540e-01 0.000000e+00
-1.111111e-01 -9.682540e-01 0.000000e+00
-7.936508e-02 -9.682540e-01 0.000000e+00
-4.761905e-02 -9.682540e-01 0.000000e+00
-1.587302e-02 -9.682540e-01 0.000000e+00
1.587302e-02 -9.682540e-01 0.000000e+00
4.761905e-02 -9.682540e-01 0.000000e+00
7.936508e-02 -9.682540e-01 0.000000e+00
1.111111e-01 -9.682540e-01 0.000000e+00
1.428571e-01 -9.682540e-01 0.000000e+00
1.746032e-01 -9.682540e-01 0.000000e+00
2.063492e-01 -9.682540e-01 0.000000e+00
2.380952e-01 -9.682540e-01 0.000000e+00
2.698413e-01 -9.682540e-01 0.000000e+00
3.015873e-01 -9.682540e-01 0.000000e+00
3.333333e-01 -9.682540e-01 0.000000e+00
3.650794e-01 -9.682540e-01 0.000000e+00
3.968254e-01 -9.682540e-01 0.000000e+00
4.285714e-01 -9.682540e-01 0.000000e+00
4.603175e-01 -9.682540e-01 0.000000e+00
4.920635e-01 -9.682540e-01 0.000000e+00
5.238095e-01 -9.682540e-01 0.000000e+00
5.555556e-01 -9.682540e-01 0.000000e+00
5.873016e-01 -9.682540e-01 0.000000e+00
6.190476e-01 -9.682540e-01 0.000000e+00
6.507937e-01 -9.682540e-01 0.000000e+00
6.825397e-01 -9.682540e-01 0.000000e+00
7.142857e-01 -9.682540e-01 0.000000e+00
7.460317e-01 -9.682540e-01 0.000000e+00
7.777778e-01 -9.682540e-01 0.000000e+00
8.095238e-01 -9.682540e-01 0.000000e+00
8.412698e-01 -9.682540e-01 0.000000e+00
8.730159e-01 -9.682540e-01 0.000000e+00
9.047619e-01 -9.682540e-01 0.000000e+00
9.365079e-01 -9.682540e-01 0.000000e+00
9.682540e-01 -9.682540e-01 0.000000e+00
1.000000e+00 -9.682540e-01 0.000000e+00
-1.000000e+00 -9.365079e-01 0.000000e+00
-9.682540e-01 -9.365079e-01 0.000000e+00
-9.365079e-01 -9.365079e-01 0.000000e+00
-9.047619e-01 -9.365079e-01 0.000000e+00
-8.730159e-01 -9.365079e-01 0.000000e+00
-8.412698e-01 -9.365079e-01 0.000000e+00
-8.095238e-01 -9.365079e-01 0.000000e+00
-7.777778e-01 -9.365079e-01 0.000000e+00
-7.460317e-01 -9.365079e-01 0.000000e+00
-7.142857e-01 -9.365079e-01 0.000000e+00
-6.825397e-01 -9.365079e-01 0.000000e+00
-6.507937e-01 -9.365079e-01 0.000000e+00
-6.190476e-01 -9.365079e-01 0.000000e+00
-5.873016e-01 -9.365079e-01 0.000000e+00
-5.555556e-01 -9.365079e-01 0.000000e+00
-5.238095e-01 -9.365079e-01 0.000000e+00
-4.920635e-01 -9.365079e-01 0.000000e+00
-4.603175e-01 -9.365079e-01 0.000000e+00
-4.285714e-01 -9.365079e-01 0.000000e+00
-3.968254e-01 -9.365079e-01 0.000000e+00
-3.650794e-01 -9.365079e-01 0.000000e+00
-3.333333e-01 -9.365079e-01 0.000000e+00
-3.015873e-01 -9.365079e-01 0.000000e+00
-2.698413e-01 -9.365079e-01 0.000000e+00
-2.380952e-01 -9.365079e-01 0.000000e+00
-2.063492e-01 -9.365079e-01 0.000000e+00
-1.746032e-01 -9.365079e-01 0.000000e+00
-1.428571e-01 -9.365079e-01 0.000000e+00
-1.111111e-01 -9.365079e-01 0.000000e+00
-7.936508e-02 -9.365079e-01 0.000000e+00
-4.761905e-02 -9.365079e-01 0.000000e+00
-1.587302e-02 -9.365079e-01 0.000000e+00
1.587302e-02 -9.365079e-01 0.000000e+00
4.761905e-02 -9.365079e-01 0.000000e+00
7.936508e-02 -9.365079e-01 0.000000e+00
1.111111e-01 -9.365079e-01 0.000000e+00
1.428571e-01 -9.365079e-01 0.000000e+00
1.746032e-01 -9.365079e-01 0.000000e+00
2.063492e-01 -9.365079e-01 0.000000e+00
2.380952e-01 -9.365079e-01 0.000000e+00
2.698413e-01 -9.365079e-01 0.000000e+00
3.015873e-01 -9.365079e-01 0.000000e+00
3.333333e-01 -9.365079e-01 0.000000e+00
3.650794e-01 -9.365079e-01 0.000000e+00
3.968254e-01 -9.365079e-01 0.000000e+00
4.285714e-01 -9.365079e-01 0.000000e+00
4.603175e-01 -9.365079e-01 0.000000e+00
4.920635e-01 -9.365079e-01 0.000000e+00
5.238095e-01 -9.365079e-01 0.000000e+00
5.555556e-01 -9.365079e-01 0.000000e+00
5.873016e-01 -9.365079e-01 0.000000e+00
6.190476e-01 -9.365079e-01 0.000000e+00
6.507937e-01 -9.365079e-01 0.000000e+00
6.825397e-01 -9.365079e-01 0.000000e+00
7.142857e-01 -9.365079e-01 0.000000e+00
7.460317e-01 -9.365079e-01 0.000000e+00
7.777778e-01 -9.365079e-01 0.000000e+00
8.095238e-01 -9.365079e-01 0.000000e+00
8.412698e-01 -9.365079e-01 0.000000e+00
8.730159e-01 -9.365079e-01 0.000000e+00
9.047619e-01 -9.365079e-01 0.000000e+00
9.365079e-01 -9.365079e-01 0.000000e+00
9.682540e-01 -9.365079e-01 0.000000e+00
1.000000e+00 -9.365079e-01 0.000000e+00
-1.000000e+00 -9.047619e-01 0.000000e+00
-9.682540e-01 -9.047619e-01 0.000000e+00
-9.365079e-01 -9.047619e-01 0.000000e+00
-9.047619e-01 -9.047619e-01 0.000000e+00
-8.730159e-01 -9.047619e-01 0.000000e+00
-8.412698e-01 -9.047619e-01 0.000000e+00
-8.095238e-01 -9.047619e-01 0.000000e+00
-7.777778e-01 -9.047619e-01 0.000000e+00
-7.460317e-01 -9.047619e-01 0.000000e+00
-7.142857e-01 -9.047619e-01 0.000000e+00
-6.825397e-01 -9.047619e-01 0.000000e+00
-6.507937e-01 -9.047619e-01 0.000000e+00
-6.190476e-01 -9.047619e-01 0.000000e+00
-5.873016e-01 -9.047619e-01 0.000000e+00
-5.555556e-01 -9.047619e-01 0.000000e+00
-5.238095e-01 -9.047619e-01 0.000000e+00
-4.920635e-01 -9.047619e-01 0.000000e+00
-4.603175e-01 -9.047619e-01 0.000000e+00
-4.285714e-01 -9.047619e-01 0.000000e+00
-3.968254e-01 -9.047619e-01 0.000000e+00
-3.650794e-01 -9.047619e-01 0.000000e+00
-3.333333e-01 -9.047619e-01 0.000000e+00
-3.015873e-01 -9.047619e-01 0.000000e+00
-2.698413e-01 -9.047619e-01 0.000000e+00
-2.380952e-01 -9.047619e-01 0.000000e+00
-2.063492e-01 -9.047619e-01 0.000000e+00
-1.746032e-01 -9.047619e-01 0.000000e+00
-1.428571e-01 -9.047619e-01 0.000000e+00
-1.111111e-01 -9.047619e-01 0.000000e+00
-7.936508e-02 -9.047619e-01 0.000000e+00
-4.761905e-02 -9.047619e-01 0.000000e+00
-1.587302e-02 -9.047619e-01 0.000000e+00
1.587302e-02 -9.047619e-01 0.000000e+00
4.761905e-02 -9.047619e-01 0.000000e+00
7.936508e-02 -9.047619e-01 0.000000e+00
1.111111e-01 -9.047619e-01 0.000000e+00
1.428571e-01 -9.047619e-01 0.000000e+00
1.746032e-01 -9.047619e-01 0.000000e+00
2.063492e-01 -9.047619e-01 0.000000e+00
2.380952e-01 -9.047619e-01 0.000000e+00
2.698413e-01 -9.047619e-01 0.000000e+00
3.015873e-01 -9.047619e-01 0.000000e+00
3.333333e-01 -9.047619e-01 0.000000e+00
3.650794e-01 -9.047619e-01 0.000000e+00
3.968254e-01 -9.047619e-01 0.000000e+00
4.285714e-01 -9.047619e-01 0.000000e+00
4.603175e-01 -9.047619e-01 0.000000e+00
4.920635e-01 -9.047619e-01 0.000000e+00
5.238095e-01 -9.047619e-01 0.000000e+00
5.555556e-01 -9.047619e-01 0.000000e+00
5.873016e-01 -9.047619e-01 0.000000e+00
6.190476e-01 -9.047619e-01 0.000000e+00
[...]
POINT_DATA 4096 
SCALARS concentration double 1 
LOOKUP_TABLE default 
1.091972e+00 
1.070597e+00 
1.049512e+00 
1.028760e+00 
1.008395e+00 
9.884662e-01 
9.690241e-01 
9.501250e-01 
9.318324e-01 
9.142110e-01 
8.973206e-01 
8.812143e-01 
8.659467e-01 
8.515723e-01 
8.381440e-01 
8.257154e-01 
8.143373e-01 
8.040564e-01 
7.949151e-01 
7.869468e-01 
7.801842e-01 
7.746446e-01 
7.703469e-01 
7.672845e-01 
7.654643e-01 
7.648583e-01 
7.654706e-01 
7.672584e-01 
7.702279e-01 
7.743326e-01 
7.795779e-01 
7.859303e-01 
7.933841e-01 
8.019119e-01 
8.114856e-01 
8.220762e-01 
8.336544e-01 
8.461901e-01 
8.596527e-01 
8.740112e-01 
8.892341e-01 
9.052897e-01 
9.221463e-01 
9.397723e-01 
9.581363e-01 
9.772071e-01 
9.969539e-01 
1.017346e+00 
1.038355e+00 
1.059949e+00 
1.082099e+00 
1.104777e+00 
1.127954e+00 
1.151600e+00 
1.175687e+00 
1.200185e+00 
1.225066e+00 
1.250298e+00 
1.275852e+00 
1.301692e+00 
1.327786e+00 
1.354094e+00 
1.380577e+00 
1.407191e+00 
1.066457e+00 
1.044444e+00 
1.022696e+00 
1.001265e+00 
9.802217e-01 
9.596094e-01 
9.394808e-01 
9.198993e-01 
9.009387e-01 
8.826714e-01 
8.651603e-01 
8.484538e-01 
8.326116e-01 
8.176952e-01 
8.037619e-01 
7.908793e-01 
7.791035e-01 
7.684879e-01 
7.590808e-01 
7.509080e-01 
7.440152e-01 
7.383949e-01 
7.340963e-01 
7.310442e-01 
7.293245e-01 
7.287671e-01 
7.295621e-01 
7.313859e-01 
7.346112e-01 
7.386878e-01 
7.442467e-01 
7.504560e-01 
7.582466e-01 
7.671258e-01 
7.770648e-01 
7.880343e-01 
8.000043e-01 
8.129440e-01 
8.268221e-01 
8.416066e-01 
8.572655e-01 
8.737661e-01 
8.910759e-01 
9.091624e-01 
9.279934e-01 
9.475367e-01 
9.677608e-01 
9.886346e-01 
1.010127e+00 
1.032208e+00 
1.054848e+00 
1.078016e+00 
1.101683e+00 
1.125819e+00 
1.150397e+00 
1.175385e+00 
1.200754e+00 
1.226475e+00 
1.252514e+00 
1.278840e+00 
1.305417e+00 
1.332208e+00 
1.359174e+00 
1.386270e+00 
1.041203e+00 
1.018526e+00 
9.960966e-01 
9.739808e-01 
9.522516e-01 
9.309461e-01 
9.101261e-01 
8.898679e-01 
8.702526e-01 
8.513527e-01 
8.332311e-01 
8.159381e-01 
7.995404e-01 
7.841110e-01 
7.697170e-01 
7.564465e-01 
7.443533e-01 
7.335059e-01 
7.239434e-01 
7.157009e-01 
7.087977e-01 
7.032477e-01 
6.990391e-01 
6.961575e-01 
6.945686e-01 
6.942578e-01 
6.951890e-01 
6.973460e-01 
7.006919e-01 
7.052062e-01 
7.108522e-01 
7.176103e-01 
7.254427e-01 
7.343345e-01 
7.442614e-01 
7.552184e-01 
7.671776e-01 
7.801901e-01 
7.942412e-01 
8.092997e-01 
8.253141e-01 
8.422390e-01 
8.600130e-01 
8.785881e-01 
8.979258e-01 
9.179857e-01 
9.387317e-01 
9.601290e-01 
9.821448e-01 
1.004747e+00 
1.027906e+00 
1.051591e+00 
1.075772e+00 
1.100421e+00 
1.125502e+00 
1.150987e+00 
1.176848e+00 
1.203057e+00 
1.229581e+00 
1.256388e+00 
1.283445e+00 
1.310714e+00 
1.338158e+00 
1.365735e+00 
1.016235e+00 
9.928664e-01 
9.697242e-01 
9.468965e-01 
9.244510e-01 
9.024185e-01 
8.808778e-01 
8.599208e-01 
8.396296e-01 
8.200715e-01 
8.013109e-01 
7.834043e-01 
7.664326e-01 
7.504881e-01 
7.356509e-01 
7.220293e-01 
7.096683e-01 
6.986539e-01 
6.890114e-01 
6.807699e-01 
6.739317e-01 
6.684933e-01 
6.644304e-01 
6.617162e-01 
6.603080e-01 
6.601920e-01 
6.613325e-01 
6.637224e-01 
6.673192e-01 
6.721073e-01 
6.780520e-01 
6.851233e-01 
6.932955e-01 
7.025322e-01 
7.128107e-01 
7.240837e-01 
7.363543e-01 
7.495388e-01 
7.637123e-01 
7.787542e-01 
7.948068e-01 
8.117056e-01 
8.296352e-01 
8.485019e-01 
8.682419e-01 
8.887487e-01 
9.100531e-01 
9.319998e-01 
9.545550e-01 
9.776903e-01 
1.001375e+00 
1.025583e+00 
1.050274e+00 
1.075441e+00 
1.101031e+00 
1.127017e+00 
1.153370e+00 
1.180065e+00 
1.207073e+00 
1.234363e+00 
1.261899e+00 
1.289647e+00 
1.317565e+00 
1.345615e+00 
9.915770e-01 
9.674899e-01 
9.435969e-01 
9.200317e-01 
8.968360e-01 
8.740426e-01 
8.517556e-01 
8.300811e-01 
8.090892e-01 
7.888409e-01 
7.694099e-01 
7.508657e-01 
7.333150e-01 
7.168765e-01 
7.016419e-01 
6.877323e-01 
6.751750e-01 
6.640801e-01 
6.544369e-01 
6.462709e-01 
6.395584e-01 
6.342774e-01 
6.303800e-01 
6.278145e-01 
6.265637e-01 
6.266173e-01 
6.279573e-01 
6.305627e-01 
6.344097e-01 
6.394669e-01 
6.457160e-01 
6.531068e-01 
6.616363e-01 
6.712300e-01 
6.819025e-01 
6.935574e-01 
7.062331e-01 
7.198151e-01 
7.343356e-01 
7.497232e-01 
7.659807e-01 
7.830938e-01 
8.010610e-01 
8.198869e-01 
8.396602e-01 
8.602628e-01 
8.818373e-01 
9.041856e-01 
9.273058e-01 
9.510266e-01 
9.752681e-01 
1.000015e+00 
1.025231e+00 
1.050893e+00 
1.076988e+00 
1.103481e+00 
1.130335e+00 
1.157521e+00 
1.185010e+00 
1.212773e+00 
1.240780e+00 
1.268996e+00 
1.297382e+00 
1.325922e+00 
9.672561e-01 
9.424241e-01 
9.177407e-01 
8.934072e-01 
8.694259e-01 
8.458409e-01 
8.227870e-01 
8.003756e-01 
7.786488e-01 
7.576731e-01 
7.375428e-01 
7.183486e-01 
7.002418e-01 
6.833615e-01 
6.678064e-01 
6.536929e-01 
6.410298e-01 
6.299451e-01 
6.204141e-01 
6.124403e-01 
6.059147e-01 
6.007446e-01 
5.969149e-01 
5.944355e-01 
5.932991e-01 
5.934933e-01 
5.950094e-01 
5.978163e-01 
6.019061e-01 
6.072321e-01 
6.137865e-01 
6.215146e-01 
6.304029e-01 
6.403906e-01 
6.514551e-01 
6.635453e-01 
6.766269e-01 
6.906691e-01 
7.056061e-01 
7.214321e-01 
7.380922e-01 
7.555521e-01 
7.738373e-01 
7.928505e-01 
8.127218e-01 
8.333640e-01 
8.548878e-01 
8.773109e-01 
9.006085e-01 
9.247213e-01 
9.495717e-01 
9.748904e-01 
1.000667e+00 
1.026858e+00 
1.053452e+00 
1.080437e+00 
1.107788e+00 
1.135470e+00 
1.163450e+00 
1.191695e+00 
1.220174e+00 
1.248855e+00 
1.277702e+00 
1.306702e+00 
9.433055e-01 
9.177026e-01 
8.922188e-01 
8.670590e-01 
8.422502e-01 
8.178493e-01 
7.940109e-01 
7.708344e-01 
7.483272e-01 
7.265891e-01 
7.057418e-01 
6.859123e-01 
6.673144e-01 
6.500749e-01 
6.342974e-01 
6.200730e-01 
6.074757e-01 
5.966012e-01 
5.873270e-01 
5.794484e-01 
5.729073e-01 
5.677250e-01 
5.639106e-01 
5.614772e-01 
5.604191e-01 
5.607296e-01 
5.624000e-01 
5.654008e-01 
5.697278e-01 
5.753263e-01 
5.821963e-01 
5.902723e-01 
5.995395e-01 
6.099391e-01 
6.214250e-01 
6.339703e-01 
6.475040e-01 
6.620122e-01 
6.774310e-01 
6.937104e-01 
7.108638e-01 
7.287503e-01 
7.474664e-01 
7.668587e-01 
7.870046e-01 
8.078635e-01 
8.294599e-01 
8.518430e-01 
8.751227e-01 
8.992432e-01 
9.243027e-01 
9.501372e-01 
9.765154e-01 
1.003281e+00 
1.030412e+00 
1.057900e+00 
1.085734e+00 
1.113894e+00 
1.142351e+00 
1.171073e+00 
1.200024e+00 
1.229170e+00 
1.258476e+00 
1.287960e+00 
9.197636e-01 
8.933648e-01 
8.670744e-01 
8.410529e-01 
8.153634e-01 
7.901209e-01 
7.654769e-01 
7.414913e-01 
7.181556e-01 
6.956370e-01 
6.740780e-01 
6.536786e-01 
6.347030e-01 
6.172034e-01 
6.013915e-01 
5.873400e-01 
5.750705e-01 
5.643568e-01 
5.550141e-01 
5.470130e-01 
5.403742e-01 
5.351246e-01 
5.312768e-01 
5.288479e-01 
5.278348e-01 
5.282380e-01 
5.300449e-01 
5.332342e-01 
5.377948e-01 
5.436756e-01 
5.508728e-01 
5.593131e-01 
5.689860e-01 
5.798158e-01 
5.917563e-01 
6.047762e-01 
6.188002e-01 
6.338035e-01 
6.497266e-01 
6.665090e-01 
6.841543e-01 
7.025552e-01 
7.217254e-01 
7.416216e-01 
7.621725e-01 
7.834133e-01 
8.053040e-01 
8.278392e-01 
8.511301e-01 
8.752086e-01 
9.001588e-01 
9.260561e-01 
9.528389e-01 
9.801731e-01 
1.007874e+00 
1.035904e+00 
1.064249e+00 
1.092897e+00 
1.121828e+00 
1.151015e+00 
1.180426e+00 
1.210028e+00 
1.239783e+00 
1.269743e+00 
8.967545e-01 
8.695436e-01 
8.423961e-01 
8.155023e-01 
7.889245e-01 
7.628462e-01 
7.373756e-01 
7.125353e-01 
6.883535e-01 
6.650790e-01 
6.428687e-01 
6.220552e-01 
6.028575e-01 
5.854075e-01 
5.699331e-01 
5.562027e-01 
5.439726e-01 
5.330973e-01 
5.235534e-01 
5.153733e-01 
5.085872e-01 
5.032256e-01 
4.993082e-01 
4.968556e-01 
4.958690e-01 
4.963529e-01 
4.982920e-01 
5.016731e-01 
5.064733e-01 
5.126527e-01 
5.201895e-01 
5.290155e-01 
5.391070e-01 
5.503864e-01 
5.628108e-01 
5.763320e-01 
5.908817e-01 
6.064189e-01 
6.228794e-01 
6.402069e-01 
6.583620e-01 
6.772956e-01 
6.969484e-01 
7.173264e-01 
7.383606e-01 
7.600152e-01 
7.823309e-01 
8.052094e-01 
8.287132e-01 
8.528896e-01 
8.777905e-01 
9.035391e-01 
9.302830e-01 
9.579732e-01 
9.861902e-01 
1.014757e+00 
1.043628e+00 
1.072779e+00 
1.102193e+00 
1.131850e+00 
1.161720e+00 
1.191772e+00 
1.221970e+00 
1.252364e+00 
8.740723e-01 
8.460159e-01 
8.179855e-01 
7.901679e-01 
7.626760e-01 
7.357331e-01 
7.093213e-01 
6.835465e-01 
6.585060e-01 
6.344972e-01 
6.117517e-01 
5.907972e-01 
5.717494e-01 
5.547084e-01 
5.393740e-01 
5.255703e-01 
5.130968e-01 
5.019242e-01 
4.921019e-01 
4.836735e-01 
4.766773e-01 
4.711498e-01 
4.671191e-01 
4.646091e-01 
4.636263e-01 
4.641765e-01 
4.662456e-01 
4.698230e-01 
4.748789e-01 
4.813782e-01 
4.892820e-01 
4.985295e-01 
5.090788e-01 
5.208496e-01 
5.337932e-01 
5.478513e-01 
5.629579e-01 
5.790613e-01 
5.960943e-01 
6.140100e-01 
6.327314e-01 
6.522311e-01 
6.724441e-01 
6.933221e-01 
7.148728e-01 
7.369908e-01 
7.597214e-01 
7.830402e-01 
8.068679e-01 
8.313101e-01 
8.563539e-01 
8.820745e-01 
9.086258e-01 
9.362426e-01 
9.647977e-01 
9.938659e-01 
1.023264e+00 
1.052933e+00 
1.082841e+00 
1.112970e+00 
1.143299e+00 
1.173802e+00 
1.204443e+00 
1.235289e+00 
8.518879e-01 
8.229633e-01 
7.939908e-01 
7.652132e-01 
7.368143e-01 
7.088915e-01 
6.815106e-01 
6.547904e-01 
6.289420e-01 
6.043238e-01 
5.815345e-01 
5.608041e-01 
5.421044e-01 
5.250855e-01 
5.096069e-01 
4.954949e-01 
4.826475e-01 
4.711137e-01 
4.609550e-01 
4.522238e-01 
4.449677e-01 
4.392324e-01 
4.350550e-01 
4.324634e-01 
4.314695e-01 
4.320791e-01 
4.342814e-01 
4.380646e-01 
4.433958e-01 
4.502381e-01 
4.585397e-01 
4.682408e-01 
4.792813e-01 
4.915820e-01 
5.050835e-01 
5.197211e-01 
5.354238e-01 
5.521307e-01 
5.697720e-01 
5.882928e-01 
6.076191e-01 
6.277032e-01 
6.485137e-01 
6.699505e-01 
6.920283e-01 
7.146886e-01 
7.378551e-01 
7.616248e-01 
7.858645e-01 
8.106213e-01 
8.359537e-01 
8.618211e-01 
8.883310e-01 
9.157150e-01 
9.442179e-01 
9.736315e-01 
1.003480e+00 
1.033640e+00 
1.064046e+00 
1.094658e+00 
1.125450e+00 
1.156398e+00 
1.187472e+00 
1.218776e+00 
8.302422e-01 
8.004284e-01 
7.704954e-01 
7.407573e-01 
7.113671e-01 
6.824456e-01 
6.540319e-01 
6.263939e-01 
5.999254e-01 
5.752325e-01 
5.526665e-01 
5.322229e-01 
5.134816e-01 
4.962336e-01 
4.803956e-01 
4.658691e-01 
4.525860e-01 
4.406275e-01 
4.300722e-01 
4.209820e-01 
4.134164e-01 
4.074327e-01 
4.030770e-01 
4.003824e-01 
3.993649e-01 
4.000313e-01 
4.023740e-01 
4.063785e-01 
4.120094e-01 
4.192234e-01 
4.279591e-01 
4.381498e-01 
4.497233e-01 
4.625936e-01 
4.766953e-01 
4.919520e-01 
5.082927e-01 
5.256433e-01 
5.439318e-01 
5.630877e-01 
5.830512e-01 
6.037514e-01 
6.251673e-01 
6.472092e-01 
6.698357e-01 
6.930635e-01 
7.167489e-01 
7.409583e-01 
7.656800e-01 
7.908005e-01 
8.164527e-01 
8.426227e-01 
8.692595e-01 
8.965437e-01 
9.247955e-01 
9.542058e-01 
9.844383e-01 
1.015034e+00 
1.045902e+00 
1.076980e+00 
1.108230e+00 
1.139621e+00 
1.171124e+00 
1.202877e+00 
8.091793e-01 
7.784575e-01 
7.475294e-01 
7.167801e-01 
6.863635e-01 
6.563770e-01 
6.270084e-01 
5.987051e-01 
5.719871e-01 
5.474235e-01 
5.251419e-01 
5.046743e-01 
4.856998e-01 
4.680679e-01 
4.517655e-01 
4.367070e-01 
4.228980e-01 
4.104445e-01 
3.994293e-01 
3.899222e-01 
3.819970e-01 
3.757243e-01 
3.711597e-01 
3.683411e-01 
3.672892e-01 
3.680132e-01 
3.705077e-01 
3.747553e-01 
3.807159e-01 
3.883372e-01 
3.975480e-01 
4.082716e-01 
4.204237e-01 
4.339099e-01 
4.486554e-01 
4.645750e-01 
4.815951e-01 
4.996287e-01 
5.185983e-01 
5.384246e-01 
5.590536e-01 
5.804050e-01 
6.024413e-01 
6.251084e-01 
6.483173e-01 
6.721060e-01 
6.963589e-01 
7.210429e-01 
7.462330e-01 
7.718287e-01 
7.978069e-01 
8.243111e-01 
8.512369e-01 
8.786038e-01 
9.066790e-01 
9.358575e-01 
9.661691e-01 
9.971474e-01 
1.028452e+00 
1.059986e+00 
1.091687e+00 
1.123516e+00 
1.155443e+00 
1.187627e+00 
7.887456e-01 
7.570995e-01 
7.251516e-01 
6.933688e-01 
6.618866e-01 
6.308748e-01 
6.007296e-01 
5.719871e-01 
5.452586e-01 
5.210073e-01 
4.987609e-01 
4.780982e-01 
4.587578e-01 
4.405984e-01 
4.236593e-01 
4.079740e-01 
3.935721e-01 
3.805581e-01 
3.690194e-01 
3.590356e-01 
3.506995e-01 
3.440962e-01 
3.392899e-01 
3.363252e-01 
3.352285e-01 
3.360133e-01 
3.386757e-01 
3.431937e-01 
3.495204e-01 
3.575919e-01 
3.673263e-01 
3.786314e-01 
3.914142e-01 
4.055665e-01 
4.210057e-01 
4.376373e-01 
4.553761e-01 
4.741310e-01 
4.938160e-01 
5.143498e-01 
5.356693e-01 
5.576999e-01 
5.803850e-01 
6.036917e-01 
6.275197e-01 
6.518774e-01 
6.767066e-01 
7.019189e-01 
7.275807e-01 
7.536391e-01 
7.800284e-01 
8.068606e-01 
8.341257e-01 
8.617470e-01 
8.898196e-01 
9.187441e-01 
9.488899e-01 
9.800613e-01 
1.011725e+00 
1.043673e+00 
1.075810e+00 
1.108073e+00 
1.140421e+00 
1.173046e+00 
7.689901e-01 
7.364069e-01 
7.034064e-01 
6.705541e-01 
6.380034e-01 
6.060749e-01 
5.753084e-01 
5.463754e-01 
5.199843e-01 
4.958521e-01 
4.734703e-01 
4.524285e-01 
4.324928e-01 
4.136713e-01 
3.960681e-01 
3.796866e-01 
3.646191e-01 
3.509775e-01 
3.388490e-01 
3.283265e-01 
3.195265e-01 
3.125482e-01 
3.074645e-01 
3.043299e-01 
3.031785e-01 
3.040301e-01 
3.068806e-01 
3.117019e-01 
3.184377e-01 
3.270096e-01 
3.373215e-01 
3.492668e-01 
3.627354e-01 
3.776121e-01 
3.938018e-01 
4.111926e-01 
4.296925e-01 
4.492075e-01 
4.696428e-01 
4.909172e-01 
5.129526e-01 
5.356782e-01 
5.590307e-01 
5.829801e-01 
6.074417e-01 
6.323844e-01 
6.577874e-01 
6.835629e-01 
7.097211e-01 
7.362469e-01 
7.630975e-01 
7.902868e-01 
8.178816e-01 
8.458274e-01 
8.740703e-01 
9.028776e-01 
9.327483e-01 
9.638790e-01 
9.958402e-01 
1.028152e+00 
1.060687e+00 
1.093359e+00 
1.126109e+00 
1.159161e+00 
7.499651e-01 
7.164371e-01 
6.823557e-01 
6.484097e-01 
6.148260e-01 
5.820903e-01 
5.509172e-01 
5.221638e-01 
4.960395e-01 
4.718613e-01 
4.491253e-01 
4.274642e-01 
4.068610e-01 
3.873507e-01 
3.690065e-01 
3.518580e-01 
3.360492e-01 
3.217147e-01 
3.089288e-01 
2.978033e-01 
2.884837e-01 
2.810812e-01 
2.756808e-01 
2.723512e-01 
2.711375e-01 
2.720667e-01 
2.751315e-01 
2.802964e-01 
2.874915e-01 
2.966213e-01 
3.075718e-01 
3.202208e-01 
3.344400e-01 
3.501054e-01 
3.671009e-01 
3.853080e-01 
4.046203e-01 
4.249395e-01 
4.461633e-01 
4.682111e-01 
4.909980e-01 
5.144467e-01 
5.384938e-01 
5.630977e-01 
5.881946e-01 
6.137269e-01 
6.396951e-01 
6.660242e-01 
6.926944e-01 
7.196944e-01 
7.469969e-01 
7.745922e-01 
8.025234e-01 
8.307865e-01 
8.593453e-01 
8.881975e-01 
9.178345e-01 
9.487326e-01 
9.807800e-01 
1.013408e+00 
1.046314e+00 
1.079382e+00 
1.112538e+00 
1.145996e+00 
7.317560e-01 
6.973062e-01 
6.621458e-01 
6.271233e-01 
5.925858e-01 
5.592640e-01 
5.280601e-01 
4.997180e-01 
4.736415e-01 
4.491739e-01 
4.258875e-01 
4.035750e-01 
3.822476e-01 
3.619422e-01 
3.427850e-01 
3.248432e-01 
3.082599e-01 
2.931885e-01 
2.796908e-01 
2.679086e-01 
2.580220e-01 
2.501509e-01 
2.443997e-01 
2.408567e-01 
2.395813e-01 
2.406063e-01 
2.439199e-01 
2.494760e-01 
2.571861e-01 
2.669346e-01 
2.785863e-01 
2.919973e-01 
3.070238e-01 
3.235271e-01 
3.413758e-01 
3.604403e-01 
3.806023e-01 
4.017544e-01 
4.237906e-01 
4.466253e-01 
4.701769e-01 
4.943611e-01 
5.191157e-01 
5.443889e-01 
5.701264e-01 
5.962577e-01 
6.227869e-01 
6.496579e-01 
6.768393e-01 
7.043148e-01 
7.320639e-01 
7.600693e-01 
7.883549e-01 
8.169343e-01 
8.457899e-01 
8.748620e-01 
9.043853e-01 
9.350187e-01 
9.669652e-01 
9.998037e-01 
1.033018e+00 
1.066440e+00 
1.099953e+00 
1.133846e+00 
7.143467e-01 
6.789610e-01 
6.427002e-01 
6.065981e-01 
5.712157e-01 
5.375084e-01 
5.065902e-01 
4.784890e-01 
4.522626e-01 
4.273366e-01 
4.033713e-01 
3.803106e-01 
3.581732e-01 
3.370280e-01 
3.169907e-01 
2.981664e-01 
2.806886e-01 
2.647219e-01 
2.503996e-01 
2.378727e-01 
2.273363e-01 
2.189196e-01 
2.127578e-01 
2.089640e-01 
2.076160e-01 
2.087506e-01 
2.123513e-01 
2.183553e-01 
2.266532e-01 
2.371031e-01 
2.495447e-01 
2.638074e-01 
2.797281e-01 
2.971496e-01 
3.159232e-01 
3.359093e-01 
3.569785e-01 
3.790130e-01 
4.018994e-01 
4.255455e-01 
4.498734e-01 
4.748018e-01 
5.002685e-01 
5.262204e-01 
5.526020e-01 
5.793467e-01 
6.064420e-01 
6.338525e-01 
6.615455e-01 
6.895010e-01 
7.177002e-01 
7.461242e-01 
7.747824e-01 
8.036916e-01 
8.328478e-01 
8.622147e-01 
8.918101e-01 
9.221734e-01 
9.538922e-01 
9.867864e-01 
1.020264e+00 
1.053999e+00 
1.087845e+00 
1.122150e+00 
6.978409e-01 
6.615379e-01 
6.241707e-01 
5.870535e-01 
5.509964e-01 
5.172211e-01 
4.867253e-01 
4.586150e-01 
4.320266e-01 
4.064709e-01 
3.817840e-01 
3.579205e-01 
3.349257e-01 
3.128678e-01 
2.918840e-01 
2.720847e-01 
2.536419e-01 
2.367144e-01 
2.214972e-01 
2.081526e-01 
1.968861e-01 
1.878496e-01 
1.812208e-01 
1.771427e-01 
1.757163e-01 
1.769822e-01 
1.809163e-01 
1.874344e-01 
1.964020e-01 
2.076431e-01 
2.209669e-01 
2.361700e-01 
2.530684e-01 
2.714840e-01 
2.912496e-01 
3.122127e-01 
3.342308e-01 
3.571794e-01 
3.809453e-01 
4.054300e-01 
4.305515e-01 
4.562301e-01 
4.824035e-01 
5.090243e-01 
5.360365e-01 
5.633836e-01 
5.910420e-01 
6.189827e-01 
6.471762e-01 
6.756022e-01 
7.042435e-01 
7.330811e-01 
7.621151e-01 
7.913595e-01 
8.208183e-01 
8.504704e-01 
8.802726e-01 
9.105458e-01 
9.419770e-01 
9.747782e-01 
1.008430e+00 
1.042429e+00 
1.076569e+00 
1.111253e+00 
6.823041e-01 
6.451149e-01 
6.066912e-01 
5.686815e-01 
5.321783e-01 
4.986341e-01 
4.683719e-01 
4.400715e-01 
4.129878e-01 
3.867831e-01 
3.613209e-01 
3.366127e-01 
3.127151e-01 
2.896979e-01 
2.677181e-01 
2.468815e-01 
2.273875e-01 
2.094047e-01 
1.931115e-01 
1.788245e-01 
1.667335e-01 
1.569936e-01 
1.498321e-01 
1.454286e-01 
1.439165e-01 
1.453392e-01 
1.496615e-01 
1.567745e-01 
1.665087e-01 
1.786471e-01 
1.929511e-01 
2.091971e-01 
2.271674e-01 
2.466598e-01 
2.674836e-01 
2.894749e-01 
3.124829e-01 
3.363757e-01 
3.610395e-01 
3.863730e-01 
4.122933e-01 
4.387244e-01 
4.656018e-01 
4.928826e-01 
5.205109e-01 
5.484434e-01 
5.766516e-01 
6.051082e-01 
6.337864e-01 
6.626672e-01 
6.917352e-01 
7.209728e-01 
7.503745e-01 
7.799498e-01 
8.097064e-01 
8.396327e-01 
8.696978e-01 
9.000172e-01 
9.311788e-01 
9.637807e-01 
9.975101e-01 
1.031737e+00 
1.066140e+00 
1.101182e+00 
6.678078e-01 
6.297770e-01 
5.903866e-01 
5.516467e-01 
5.149528e-01 
4.818337e-01 
4.515380e-01 
4.228690e-01 
3.952031e-01 
3.682657e-01 
3.420061e-01 
3.164245e-01 
2.915925e-01 
2.675764e-01 
2.445444e-01 
2.226113e-01 
2.019477e-01 
1.828350e-01 
1.654209e-01 
1.500116e-01 
1.369652e-01 
1.264276e-01 
1.186531e-01 
1.138718e-01 
1.122629e-01 
1.138713e-01 
1.186495e-01 
1.264575e-01 
1.370758e-01 
1.502228e-01 
1.656313e-01 
1.830340e-01 
2.021729e-01 
2.228214e-01 
2.447709e-01 
2.678414e-01 
2.918729e-01 
3.167283e-01 
3.422985e-01 
3.684842e-01 
3.952035e-01 
4.223830e-01 
4.499573e-01 
4.778789e-01 
5.061058e-01 
5.346005e-01 
5.633357e-01 
5.922861e-01 
6.214273e-01 
6.507417e-01 
6.802160e-01 
7.098345e-01 
7.395893e-01 
7.694859e-01 
7.995321e-01 
8.297220e-01 
8.600327e-01 
8.904985e-01 
9.215393e-01 
9.538845e-01 
9.875665e-01 
1.021961e+00 
1.056582e+00 
1.091959e+00 
6.544300e-01 
6.156159e-01 
5.753720e-01 
5.361090e-01 
4.994945e-01 
4.666593e-01 
4.361861e-01 
4.070569e-01 
3.787599e-01 
3.511021e-01 
3.240376e-01 
2.975667e-01 
2.717744e-01 
2.467468e-01 
2.226056e-01 
1.995447e-01 
1.776827e-01 
1.572867e-01 
1.386369e-01 
1.219844e-01 
1.077379e-01 
9.625779e-02 
8.777038e-02 
8.254184e-02 
8.081784e-02 
8.264553e-02 
8.796597e-02 
9.659378e-02 
1.082239e-01 
1.225298e-01 
1.391814e-01 
1.578585e-01 
1.782667e-01 
2.001505e-01 
2.232838e-01 
2.474711e-01 
2.725532e-01 
2.983913e-01 
3.248770e-01 
3.519108e-01 
3.794112e-01 
4.073149e-01 
4.355560e-01 
4.640953e-01 
4.928963e-01 
5.219268e-01 
5.511623e-01 
5.805802e-01 
6.101581e-01 
6.398798e-01 
6.697342e-01 
6.997082e-01 
7.297936e-01 
7.599938e-01 
7.903157e-01 
8.207561e-01 
8.512977e-01 
8.819402e-01 
9.129766e-01 
9.450389e-01 
9.786103e-01 
1.013126e+00 
1.047918e+00 
1.083607e+00 
6.422553e-01 
6.027288e-01 
5.617740e-01 
5.222222e-01 
4.859063e-01 
4.531921e-01 
4.223987e-01 
3.927305e-01 
3.638016e-01 
3.354204e-01 
3.075384e-01 
2.801909e-01 
2.534222e-01 
2.273555e-01 
2.020926e-01 