# vtk DataFile Version 2.0 
Quadtree Mesh 
ASCII 
DATASET UNSTRUCTURED_GRID 
POINTS 4096 double 
-1.000000e+00 -1.000000e+00 0.000000e+00
-9.682540e-01 -1.000000e+00 0.000000e+00
-9.365079e-01 -1.000000e+00 0.000000e+00
-9.047619e-01 -1.000000e+00 0.000000e+00
-8.730159e-01 -1.000000e+00 0.000000e+00
-8.412698e-01 -1.000000e+00 0.000000e+00
-8.095238e-01 -1.000000e+00 0.000000e+00
-7.777778e-01 -1.000000e+00 0.000000e+00
-7.460317e-01 -1.000000e+00 0.000000e+00
-7.142857e-01 -1.000000e+00 0.000000e+00
-6.825397e-01 -1.000000e+00 0.000000e+00
-6.507937e-01 -1.000000e+00 0.000000e+00
-6.190476e-01 -1.000000e+00 0.000000e+00
-5.873016e-01 -1.000000e+00 0.000000e+00
-5.555556e-01 -1.000000e+00 0.000000e+00
-5.238095e-01 -1.000000e+00 0.000000e+00
-4.920635e-01 -1.000000e+00 0.000000e+00
-4.603175e-01 -1.000000e+00 0.000000e+00
-4.285714e-01 -1.000000e+00 0.000000e+00
-3.968254e-01 -1.000000e+00 0.000000e+00
-3.650794e-01 -1.000000e+00 0.000000e+00
-3.333333e-01 -1.000000e+00 0.000000e+00
-3.015873e-01 -1.000000e+00 0.000000e+00
-2.698413e-01 -1.000000e+00 0.000000e+00
-2.380952e-01 -1.000000e+00 0.000000e+00
-2.063492e-01 -1.000000e+00 0.000000e+00
-1.746032e-01 -1.000000e+00 0.000000e+00
-1.428571e-01 -1.000000e+00 0.000000e+00
-1.111111e-01 -1.000000e+00 0.000000e+00
-7.936508e-02 -1.000000e+00 0.000000e+00
-4.761905e-02 -1.000000e+00 0.000000e+00
-1.587302e-02 -1.000000e+00 0.000000e+00
1.587302e-02 -1.000000e+00 0.000000e+00
4.761905e-02 -1.000000e+00 0.000000e+00
7.936508e-02 -1.000000e+00 0.000000e+00
1.111111e-01 -1.000000e+00 0.000000e+00
1.428571e-01 -1.000000e+00 0.000000e+00
1.746032e-01 -1.000000e+00 0.000000e+00
2.063492e-01 -1.000000e+00 0.000000e+00
2.380952e-01 -1.000000e+00 0.000000e+00
2.698413e-01 -1.000000e+00 0.000000e+00
3.015873e-01 -1.000000e+00 0.000000e+00
3.333333e-01 -1.000000e+00 0.000000e+00
3.650794e-01 -1.000000e+00 0.000000e+00
3.968254e-01 -1.000000e+00 0.000000e+00
4.285714e-01 -1.000000e+00 0.000000e+00
4.603175e-01 -1.000000e+00 0.000000e+00
4.920635e-01 -1.000000e+00 0.000000e+00
5.238095e-01 -1.000000e+00 0.000000e+00
5.555556e-01 -1.000000e+00 0.000000e+00
5.873016e-01 -1.000000e+00 0.000000e+00
6.190476e-01 -1.000000e+00 0.000000e+00
6.507937e-01 -1.000000e+00 0.000000e+00
6.825397e-01 -1.000000e+00 0.000000e+00
7.142857e-01 -1.000000e+00 0.000000e+00
7.460317e-01 -1.000000e+00 0.000000e+00
7.777778e-01 -1.000000e+00 0.000000e+00
8.095238e-01 -1.000000e+00 0.000000e+00
8.412698e-01 -1.000000e+00 0.000000e+00
8.730159e-01 -1.000000e+00 0.000000e+00
9.047619e-01 -1.000000e+00 0.000000e+00
9.365079e-01 -1.000000e+00 0.000000e+00
9.682540e-01 -1.000000e+00 0.000000e+00
1.000000e+00 -1.000000e+00 0.000000e+00
-1.000000e+00 -9.682540e-01 0.000000e+00
-9.682540e-01 -9.682540e-01 0.000000e+00
-9.365079e-01 -9.682540e-01 0.000000e+00
-9.047619e-01 -9.682540e-01 0.000000e+00
-8.730159e-01 -9.682540e-01 0.000000e+00
-8.412698e-01 -9.682540e-01 0.000000e+00
-8.095238e-01 -9.682540e-01 0.000000e+00
-7.777778e-01 -9.682540e-01 0.000000e+00
-7.460317e-01 -9.682540e-01 0.000000e+00
-7.142857e-01 -9.682540e-01 0.000000e+00
-6.825397e-01 -9.682540e-01 0.000000e+00
-6.507937e-01 -9.682540e-01 0.000000e+00
-6.190476e-01 -9.682540e-01 0.000000e+00
-5.873016e-01 -9.682540e-01 0.000000e+00
-5.555556e-01 -9.682540e-01 0.000000e+00
-5.238095e-01 -9.682540e-01 0.000000e+00
-4.920635e-01 -9.682540e-01 0.000000e+00
-4.603175e-01 -9.682540e-01 0.000000e+00
-4.285714e-01 -9.682540e-01 0.000000e+00
-3.968254e-01 -9.682540e-01 0.000000e+00
-3.650794e-01 -9.682540e-01 0.000000e+00
-3.333333e-01 -9.682540e-01 0.000000e+00
-3.015873e-01 -9.682540e-01 0.000000e+00
-2.698413e-01 -9.682540e-01 0.000000e+00
-2.380952e-01 -9.682540e-01 0.000000e+00
-2.063492e-01 -9.682540e-01 0.000000e+00
-1.746032e-01 -9.682540e-01 0.000000e+00
-1.428571e-01 -9.682540e-01 0.000000e+00
-1.111111e-01 -9.682540e-01 0.000000e+00
-7.936508e-02 -9.682540e-01 0.000000e+00
-4.761905e-02 -9.682540e-01 0.000000e+00
-1.587302e-02 -9.682540e-01 0.000000e+00
1.587302e-02 -9.682540e-01 0.000000e+00
4.761905e-02 -9.682540e-01 0.000000e+00
7.936508e-02 -9.682540e-01 0.000000e+00
1.111111e-01 -9.682540e-01 0.000000e+00
1.428571e-01 -9.682540e-01 0.000000e+00
1.746032e-01 -9.682540e-01 0.000000e+00
2.063492e-01 -9.682540e-01 0.000000e+00
2.380952e-01 -9.682540e-01 0.000000e+00
2.698413e-01 -9.682540e-01 0.000000e+00
3.015873e-01 -9.682540e-01 0.000000e+00
3.333333e-01 -9.682540e-01 0.000000e+00
3.650794e-01 -9.682540e-01 0.000000e+00
3.968254e-01 -9.682540e-01 0.000000e+00
4.285714e-01 -9.682540e-01 0.000000e+00
4.603175e-01 -9.682540e-01 0.000000e+00
4.920635e-01 -9.682540e-01 0.000000e+00
5.238095e-01 -9.682540e-01 0.000000e+00
5.555556e-01 -9.682540e-01 0.000000e+00
5.873016e-01 -9.682540e-01 0.000000e+00
6.190476e-01 -9.682540e-01 0.000000e+00
6.507937e-01 -9.682540e-01 0.000000e+00
6.825397e-01 -9.682540e-01 0.000000e+00
7.142857e-01 -9.682540e-01 0.000000e+00
7.460317e-01 -9.682540e-01 0.000000e+00
7.777778e-01 -9.682540e-01 0.000000e+00
8.095238e-01 -9.682540e-01 0.000000e+00
8.412698e-01 -9.682540e-01 0.000000e+00
8.730159e-01 -9.682540e-01 0.000000e+00
9.047619e-01 -9.682540e-01 0.000000e+00
9.365079e-01 -9.682540e-01 0.000000e+00
9.682540e-01 -9.682540e-01 0.000000e+00
1.000000e+00 -9.682540e-01 0.000000e+00
-1.000000e+00 -9.365079e-01 0.000000e+00
-9.682540e-01 -9.365079e-01 0.000000e+00
-9.365079e-01 -9.365079e-01 0.000000e+00
-9.047619e-01 -9.365079e-01 0.000000e+00
-8.730159e-01 -9.365079e-01 0.000000e+00
-8.412698e-01 -9.365079e-01 0.000000e+00
-8.095238e-01 -9.365079e-01 0.000000e+00
-7.777778e-01 -9.365079e-01 0.000000e+00
-7.460317e-01 -9.365079e-01 0.000000e+00
-7.142857e-01 -9.365079e-01 0.000000e+00
-6.825397e-01 -9.365079e-01 0.000000e+00
-6.507937e-01 -9.365079e-01 0.000000e+00
-6.190476e-01 -9.365079e-01 0.000000e+00
-5.873016e-01 -9.365079e-01 0.000000e+00
-5.555556e-01 -9.365079e-01 0.000000e+00
-5.238095e-01 -9.365079e-01 0.000000e+00
-4.920635e-01 -9.365079e-01 0.000000e+00
-4.603175e-01 -9.365079e-01 0.000000e+00
-4.285714e-01 -9.365079e-01 0.000000e+00
-3.968254e-01 -9.365079e-01 0.000000e+00
-3.650794e-01 -9.365079e-01 0.000000e+00
-3.333333e-01 -9.365079e-01 0.000000e+00
-3.015873e-01 -9.365079e-01 0.000000e+00
-2.698413e-01 -9.365079e-01 0.000000e+00
-2.380952e-01 -9.365079e-01 0.000000e+00
-2.063492e-01 -9.365079e-01 0.000000e+00
-1.746032e-01 -9.365079e-01 0.000000e+00
-1.428571e-01 -9.365079e-01 0.000000e+00
-1.111111e-01 -9.365079e-01 0.000000e+00
-7.936508e-02 -9.365079e-01 0.000000e+00
-4.761905e-02 -9.365079e-01 0.000000e+00
-1.587302e-02 -9.365079e-01 0.000000e+00
1.587302e-02 -9.365079e-01 0.000000e+00
4.761905e-02 -9.365079e-01 0.000000e+00
7.936508e-02 -9.365079e-01 0.000000e+00
1.111111e-01 -9.365079e-01 0.000000e+00
1.428571e-01 -9.365079e-01 0.000000e+00
1.746032e-01 -9.365079e-01 0.000000e+00
2.063492e-01 -9.365079e-01 0.000000e+00
2.380952e-01 -9.365079e-01 0.000000e+00
2.698413e-01 -9.365079e-01 0.000000e+00
3.015873e-01 -9.365079e-01 0.000000e+00
3.333333e-01 -9.365079e-01 0.000000e+00
3.650794e-01 -9.365079e-01 0.000000e+00
3.968254e-01 -9.365079e-01 0.000000e+00
4.285714e-01 -9.365079e-01 0.000000e+00
4.603175e-01 -9.365079e-01 0.000000e+00
4.920635e-01 -9.365079e-01 0.000000e+00
5.238095e-01 -9.365079e-01 0.000000e+00
5.555556e-01 -9.365079e-01 0.000000e+00
5.873016e-01 -9.365079e-01 0.000000e+00
6.190476e-01 -9.365079e-01 0.000000e+00
6.507937e-01 -9.365079e-01 0.000000e+00
6.825397e-01 -9.365079e-01 0.000000e+00
7.142857e-01 -9.365079e-01 0.000000e+00
7.460317e-01 -9.365079e-01 0.000000e+00
7.777778e-01 -9.365079e-01 0.000000e+00
8.095238e-01 -9.365079e-01 0.000000e+00
8.412698e-01 -9.365079e-01 0.000000e+00
8.730159e-01 -9.365079e-01 0.000000e+00
9.047619e-01 -9.365079e-01 0.000000e+00
9.365079e-01 -9.365079e-01 0.000000e+00
9.682540e-01 -9.365079e-01 0.000000e+00
1.000000e+00 -9.365079e-01 0.000000e+00
-1.000000e+00 -9.047619e-01 0.000000e+00
-9.682540e-01 -9.047619e-01 0.000000e+00
-9.365079e-01 -9.047619e-01 0.000000e+00
-9.047619e-01 -9.047619e-01 0.000000e+00
-8.730159e-01 -9.047619e-01 0.000000e+00
-8.412698e-01 -9.047619e-01 0.000000e+00
-8.095238e-01 -9.047619e-01 0.000000e+00
-7.777778e-01 -9.047619e-01 0.000000e+00
-7.460317e-01 -9.047619e-01 0.000000e+00
-7.142857e-01 -9.047619e-01 0.000000e+00
-6.825397e-01 -9.047619e-01 0.000000e+00
-6.507937e-01 -9.047619e-01 0.000000e+00
-6.190476e-01 -9.047619e-01 0.000000e+00
-5.873016e-01 -9.047619e-01 0.000000e+00
-5.555556e-01 -9.047619e-01 0.000000e+00
-5.238095e-01 -9.047619e-01 0.000000e+00
-4.920635e-01 -9.047619e-01 0.000000e+00
-4.603175e-01 -9.047619e-01 0.000000e+00
-4.285714e-01 -9.047619e-01 0.000000e+00
-3.968254e-01 -9.047619e-01 0.000000e+00
-3.650794e-01 -9.047619e-01 0.000000e+00
-3.333333e-01 -9.047619e-01 0.000000e+00
-3.015873e-01 -9.047619e-01 0.000000e+00
-2.698413e-01 -9.047619e-01 0.000000e+00
-2.380952e-01 -9.047619e-01 0.000000e+00
-2.063492e-01 -9.047619e-01 0.000000e+00
-1.746032e-01 -9.047619e-01 0.000000e+00
-1.428571e-01 -9.047619e-01 0.000000e+00
-1.111111e-01 -9.047619e-01 0.000000e+00
-7.936508e-02 -9.047619e-01 0.000000e+00
-4.761905e-02 -9.047619e-01 0.000000e+00
-1.587302e-02 -9.047619e-01 0.000000e+00
1.587302e-02 -9.047619e-01 0.000000e+00
4.761905e-02 -9.047619e-01 0.000000e+00
7.936508e-02 -9.047619e-01 0.000000e+00
1.111111e-01 -9.047619e-01 0.000000e+00
1.428571e-01 -9.047619e-01 0.000000e+00
1.746032e-01 -9.047619e-01 0.000000e+00
2.063492e-01 -9.047619e-01 0.000000e+00
2.380952e-01 -9.047619e-01 0.000000e+00
2.698413e-01 -9.047619e-01 0.000000e+00
3.015873e-01 -9.047619e-01 0.000000e+00
3.333333e-01 -9.047619e-01 0.000000e+00
3.650794e-01 -9.047619e-01 0.000000e+00
3.968254e-01 -9.047619e-01 0.000000e+00
4.285714e-01 -9.047619e-01 0.000000e+00
4.603175e-01 -9.047619e-01 0.000000e+00
4.920635e-01 -9.047619e-01 0.000000e+00
5.238095e-01 -9.047619e-01 0.000000e+00
5.555556e-01 -9.047619e-01 0.000000e+00
5.873016e-01 -9.047619e-01 0.000000e+00
6.190476e-01 -9.047619e-01 0.000000e+00
[...]
POINT_DATA 4096 
SCALARS concentration double 1 
LOOKUP_TABLE default 
1.433225e+00 
1.413222e+00 
1.393145e+00 
1.373029e+00 
1.352907e+00 
1.332812e+00 
1.312774e+00 
1.292825e+00 
1.272999e+00 
1.253333e+00 
1.233870e+00 
1.214649e+00 
1.195715e+00 
1.177110e+00 
1.158881e+00 
1.141073e+00 
1.123730e+00 
1.106890e+00 
1.090587e+00 
1.074853e+00 
1.059715e+00 
1.045200e+00 
1.031334e+00 
1.018140e+00 
1.005643e+00 
9.938675e-01 
9.828368e-01 
9.725748e-01 
9.631055e-01 
9.544530e-01 
9.466411e-01 
9.396936e-01 
9.336312e-01 
9.284625e-01 
9.241914e-01 
9.208167e-01 
9.183321e-01 
9.167262e-01 
9.159828e-01 
9.160827e-01 
9.170047e-01 
9.187280e-01 
9.212341e-01 
9.245072e-01 
9.285342e-01 
9.333040e-01 
9.388056e-01 
9.450268e-01 
9.519528e-01 
9.595657e-01 
9.678449e-01 
9.767668e-01 
9.863065e-01 
9.964378e-01 
1.007135e+00 
1.018371e+00 
1.030123e+00 
1.042366e+00 
1.055081e+00 
1.068247e+00 
1.081847e+00 
1.095866e+00 
1.110293e+00 
1.125115e+00 
1.414423e+00 
1.393902e+00 
1.373265e+00 
1.352597e+00 
1.331932e+00 
1.311299e+00 
1.290727e+00 
1.270250e+00 
1.249904e+00 
1.229727e+00 
1.209765e+00 
1.190055e+00 
1.170641e+00 
1.151569e+00 
1.132887e+00 
1.114645e+00 
1.096884e+00 
1.079643e+00 
1.062954e+00 
1.046843e+00 
1.031336e+00 
1.016456e+00 
1.002227e+00 
9.886738e-01 
9.758210e-01 
9.636930e-01 
9.523135e-01 
9.417061e-01 
9.318940e-01 
9.229001e-01 
9.147461e-01 
9.074527e-01 
9.012510e-01 
8.959848e-01 
8.916598e-01 
8.882767e-01 
8.858306e-01 
8.843116e-01 
8.837042e-01 
8.839887e-01 
8.851426e-01 
8.871424e-01 
8.899656e-01 
8.935920e-01 
8.980040e-01 
9.031864e-01 
9.091246e-01 
9.158038e-01 
9.232073e-01 
9.313163e-01 
9.401090e-01 
9.495613e-01 
9.596472e-01 
9.703396e-01 
9.816108e-01 
9.934335e-01 
1.005781e+00 
1.018628e+00 
1.031950e+00 
1.045727e+00 
1.059937e+00 
1.074564e+00 
1.089593e+00 
1.105010e+00 
1.395860e+00 
1.374814e+00 
1.353640e+00 
1.332438e+00 
1.311238e+00 
1.290068e+00 
1.268958e+00 
1.247945e+00 
1.227067e+00 
1.206367e+00 
1.185891e+00 
1.165680e+00 
1.145785e+00 
1.126255e+00 
1.107140e+00 
1.088487e+00 
1.070336e+00 
1.052723e+00 
1.035676e+00 
1.019218e+00 
1.003371e+00 
9.881555e-01 
9.735959e-01 
9.597160e-01 
9.465413e-01 
9.340977e-01 
9.224118e-01 
9.115098e-01 
9.014173e-01 
8.921591e-01 
8.837590e-01 
8.762397e-01 
8.696289e-01 
8.639627e-01 
8.592718e-01 
8.555808e-01 
8.529058e-01 
8.512522e-01 
8.506139e-01 
8.509731e-01 
8.523020e-01 
8.545661e-01 
8.577274e-01 
8.617492e-01 
8.665983e-01 
8.722473e-01 
8.786734e-01 
8.858572e-01 
8.937805e-01 
9.024238e-01 
9.117657e-01 
9.217820e-01 
9.324462e-01 
9.437302e-01 
9.556048e-01 
9.680409e-01 
9.810100e-01 
9.944828e-01 
1.008434e+00 
1.022840e+00 
1.037680e+00 
1.052933e+00 
1.068583e+00 
1.084614e+00 
1.377544e+00 
1.355967e+00 
1.334252e+00 
1.312503e+00 
1.290751e+00 
1.269026e+00 
1.247365e+00 
1.225806e+00 
1.204395e+00 
1.183180e+00 
1.162201e+00 
1.141506e+00 
1.121146e+00 
1.101171e+00 
1.081631e+00 
1.062568e+00 
1.044022e+00 
1.026027e+00 
1.008608e+00 
9.917841e-01 
9.755763e-01 
9.600071e-01 
9.450998e-01 
9.308788e-01 
9.173702e-01 
9.046014e-01 
8.926007e-01 
8.813962e-01 
8.710153e-01 
8.614845e-01 
8.528295e-01 
8.450747e-01 
8.382487e-01 
8.323806e-01 
8.274931e-01 
8.236061e-01 
8.207381e-01 
8.189053e-01 
8.181189e-01 
8.183827e-01 
8.196895e-01 
8.220200e-01 
8.253432e-01 
8.296195e-01 
8.348055e-01 
8.408582e-01 
8.477393e-01 
8.554155e-01 
8.638586e-01 
8.730433e-01 
8.829447e-01 
8.935369e-01 
9.047924e-01 
9.166817e-01 
9.291743e-01 
9.422392e-01 
9.558457e-01 
9.699617e-01 
9.845596e-01 
9.996140e-01 
1.015101e+00 
1.030999e+00 
1.047289e+00 
1.063954e+00 
1.359484e+00 
1.337374e+00 
1.315112e+00 
1.292812e+00 
1.270508e+00 
1.248232e+00 
1.226025e+00 
1.203931e+00 
1.182000e+00 
1.160275e+00 
1.138803e+00 
1.117633e+00 
1.096816e+00 
1.076402e+00 
1.056437e+00 
1.036960e+00 
1.018007e+00 
9.996083e-01 
9.817899e-01 
9.645766e-01 
9.479888e-01 
9.320470e-01 
9.167742e-01 
9.021957e-01 
8.883386e-01 
8.752320e-01 
8.629057e-01 
8.513891e-01 
8.407109e-01 
8.308989e-01 
8.219800e-01 
8.139804e-01 
8.069306e-01 
8.008624e-01 
7.957995e-01 
7.917612e-01 
7.887632e-01 
7.868183e-01 
7.859368e-01 
7.861262e-01 
7.873890e-01 
7.897206e-01 
7.931060e-01 
7.975192e-01 
8.029236e-01 
8.092756e-01 
8.165292e-01 
8.246394e-01 
8.335656e-01 
8.432714e-01 
8.537238e-01 
8.648913e-01 
8.767423e-01 
8.892448e-01 
9.023655e-01 
9.160710e-01 
9.303284e-01 
9.451023e-01 
9.603623e-01 
9.760807e-01 
9.922319e-01 
1.008792e+00 
1.025739e+00 
1.043054e+00 
1.341689e+00 
1.319044e+00 
1.296233e+00 
1.273382e+00 
1.250525e+00 
1.227698e+00 
1.204945e+00 
1.182317e+00 
1.159863e+00 
1.137628e+00 
1.115661e+00 
1.094018e+00 
1.072750e+00 
1.051904e+00 
1.031523e+00 
1.011640e+00 
9.922859e-01 
9.734852e-01 
9.552622e-01 
9.376415e-01 
9.206485e-01 
9.043094e-01 
8.886463e-01 
8.736865e-01 
8.594596e-01 
8.459970e-01 
8.333296e-01 
8.214878e-01 
8.105013e-01 
8.003989e-01 
7.912085e-01 
7.829573e-01 
7.756771e-01 
7.694014e-01 
7.641564e-01 
7.599641e-01 
7.568424e-01 
7.548044e-01 
7.538593e-01 
7.540121e-01 
7.552644e-01 
7.576139e-01 
7.610526e-01 
7.655649e-01 
7.711256e-01 
7.777002e-01 
7.852462e-01 
7.937171e-01 
8.030658e-01 
8.132471e-01 
8.242190e-01 
8.359420e-01 
8.483780e-01 
8.614897e-01 
8.752398e-01 
8.895912e-01 
9.045073e-01 
9.199497e-01 
9.358838e-01 
9.522794e-01 
9.691083e-01 
9.863444e-01 
1.003963e+00 
1.021945e+00 
1.324170e+00 
1.300990e+00 
1.277629e+00 
1.254226e+00 
1.230816e+00 
1.207440e+00 
1.184147e+00 
1.160989e+00 
1.138017e+00 
1.115279e+00 
1.092831e+00 
1.070728e+00 
1.049023e+00 
1.027757e+00 
1.006967e+00 
9.866808e-01 
9.669208e-01 
9.477093e-01 
9.290691e-01 
9.110254e-01 
8.936056e-01 
8.768372e-01 
8.607516e-01 
8.453813e-01 
8.307588e-01 
8.169167e-01 
8.038867e-01 
7.917001e-01 
7.803877e-01 
7.699801e-01 
7.605069e-01 
7.519968e-01 
7.444822e-01 
7.379967e-01 
7.325668e-01 
7.282162e-01 
7.249654e-01 
7.228312e-01 
7.218253e-01 
7.219536e-01 
7.232165e-01 
7.256094e-01 
7.291234e-01 
7.337449e-01 
7.394539e-01 
7.462233e-01 
7.540181e-01 
7.627965e-01 
7.725125e-01 
7.831182e-01 
7.945662e-01 
8.068104e-01 
8.198062e-01 
8.335100e-01 
8.478791e-01 
8.628714e-01 
8.784459e-01 
8.945610e-01 
9.111754e-01 
9.282565e-01 
9.457731e-01 
9.636964e-01 
9.819999e-01 
1.000660e+00 
1.306940e+00 
1.283229e+00 
1.259316e+00 
1.235358e+00 
1.211395e+00 
1.187472e+00 
1.163642e+00 
1.139960e+00 
1.116475e+00 
1.093243e+00 
1.070323e+00 
1.047772e+00 
1.025638e+00 
1.003958e+00 
9.827590e-01 
9.620619e-01 
9.418841e-01 
9.222455e-01 
9.031705e-01 
8.846875e-01 
8.668274e-01 
8.496218e-01 
8.331036e-01 
8.173076e-01 
8.022694e-01 
7.880240e-01 
7.746051e-01 
7.620469e-01 
7.503829e-01 
7.396466e-01 
7.298705e-01 
7.210861e-01 
7.133285e-01 
7.066316e-01 
7.010204e-01 
6.965168e-01 
6.931406e-01 
6.909099e-01 
6.898400e-01 
6.899409e-01 
6.912162e-01 
6.936620e-01 
6.972677e-01 
7.020175e-01 
7.078904e-01 
7.148604e-01 
7.228963e-01 
7.319613e-01 
7.420131e-01 
7.530059e-01 
7.648915e-01 
7.776208e-01 
7.911448e-01 
8.054147e-01 
8.203825e-01 
8.360008e-01 
8.522238e-01 
8.690068e-01 
8.863009e-01 
9.040695e-01 
9.222781e-01 
9.408950e-01 
9.598909e-01 
9.792391e-01 
1.289944e+00 
1.265700e+00 
1.241231e+00 
1.216715e+00 
1.192194e+00 
1.167718e+00 
1.143346e+00 
1.119135e+00 
1.095136e+00 
1.071412e+00 
1.048026e+00 
1.025032e+00 
1.002472e+00 
9.803747e-01 
9.587591e-01 
9.376385e-01 
9.170275e-01 
8.969456e-01 
8.774183e-01 
8.584767e-01 
8.401551e-01 
8.224866e-01 
8.055069e-01 
7.892545e-01 
7.737676e-01 
7.590830e-01 
7.452371e-01 
7.322671e-01 
7.202111e-01 
7.091068e-01 
6.989907e-01 
6.898976e-01 
6.818661e-01 
6.749341e-01 
6.691284e-01 
6.644701e-01 
6.609761e-01 
6.586608e-01 
6.575368e-01 
6.576140e-01 
6.588989e-01 
6.613917e-01 
6.650849e-01 
6.699635e-01 
6.760053e-01 
6.831829e-01 
6.914641e-01 
7.008130e-01 
7.111896e-01 
7.225505e-01 
7.348488e-01 
7.480355e-01 
7.620596e-01 
7.768695e-01 
7.924133e-01 
8.086395e-01 
8.254979e-01 
8.429394e-01 
8.609130e-01 
8.793723e-01 
8.982800e-01 
9.176012e-01 
9.373035e-01 
9.573573e-01 
1.273352e+00 
1.248587e+00 
1.223571e+00 
1.198507e+00 
1.173440e+00 
1.148426e+00 
1.123528e+00 
1.098799e+00 
1.074302e+00 
1.050104e+00 
1.026268e+00 
1.002845e+00 
9.798681e-01 
9.573579e-01 
9.353243e-01 
9.137767e-01 
8.927283e-01 
8.721991e-01 
8.522156e-01 
8.328098e-01 
8.140171e-01 
7.958758e-01 
7.784268e-01 
7.617118e-01 
7.457719e-01 
7.306428e-01 
7.163621e-01 
7.029709e-01 
6.905110e-01 
6.790235e-01 
6.685485e-01 
6.591241e-01 
6.507931e-01 
6.435982e-01 
6.375725e-01 
6.327421e-01 
6.291265e-01 
6.267390e-01 
6.255879e-01 
6.256776e-01 
6.270094e-01 
6.295817e-01 
6.333880e-01 
6.384154e-01 
6.446436e-01 
6.520458e-01 
6.605893e-01 
6.702372e-01 
6.809493e-01 
6.926823e-01 
7.053898e-01 
7.190231e-01 
7.335306e-01 
7.488593e-01 
7.649551e-01 
7.817638e-01 
7.992320e-01 
8.173073e-01 
8.359370e-01 
8.550658e-01 
8.746531e-01 
8.946604e-01 
9.150521e-01 
9.357956e-01 
1.257108e+00 
1.231830e+00 
1.206271e+00 
1.180662e+00 
1.155053e+00 
1.129506e+00 
1.104088e+00 
1.078853e+00 
1.053873e+00 
1.029219e+00 
1.004951e+00 
9.811112e-01 
9.577215e-01 
9.347908e-01 
9.123237e-01 
8.903284e-01 
8.688215e-01 
8.478275e-01 
8.273767e-01 
8.075023e-01 
7.882389e-01 
7.696228e-01 
7.516924e-01 
7.344891e-01 
7.180573e-01 
7.024435e-01 
6.876930e-01 
6.738502e-01 
6.609590e-01 
6.490635e-01 
6.382068e-01 
6.284305e-01 
6.197815e-01 
6.123064e-01 
6.060418e-01 
6.010177e-01 
5.972582e-01 
5.947803e-01 
5.935937e-01 
5.937007e-01 
5.950981e-01 
5.977781e-01 
6.017292e-01 
6.069359e-01 
6.133776e-01 
6.210278e-01 
6.298543e-01 
6.398201e-01 
6.508840e-01 
6.630018e-01 
6.761263e-01 
6.902079e-01 
7.051945e-01 
7.210323e-01 
7.376660e-01 
7.550399e-01 
7.730984e-01 
7.917872e-01 
8.110527e-01 
8.308346e-01 
8.510864e-01 
8.717666e-01 
8.928364e-01 
9.142608e-01 
1.241236e+00 
1.215453e+00 
1.189355e+00 
1.163205e+00 
1.137060e+00 
1.110988e+00 
1.085055e+00 
1.059326e+00 
1.033881e+00 
1.008792e+00 
9.841098e-01 
9.598644e-01 
9.360637e-01 
9.127056e-01 
8.897900e-01 
8.673269e-01 
8.453382e-01 
8.238548e-01 
8.029124e-01 
7.825473e-01 
7.627952e-01 
7.436917e-01 
7.252735e-01 
7.075800e-01 
6.906543e-01 
6.745435e-01 
6.592978e-01 
6.449703e-01 
6.316131e-01 
6.192763e-01 
6.080070e-01 
5.978503e-01 
5.888570e-01 
5.810781e-01 
5.745538e-01 
5.693175e-01 
5.653966e-01 
5.628119e-01 
5.615757e-01 
5.616920e-01 
5.631562e-01 
5.659565e-01 
5.700754e-01 
5.754916e-01 
5.821798e-01 
5.901111e-01 
5.992519e-01 
6.095643e-01 
6.210061e-01 
6.335315e-01 
6.470916e-01 
6.616352e-01 
6.771089e-01 
6.934576e-01 
7.106253e-01 
7.285553e-01 
7.471910e-01 
7.664768e-01 
7.863579e-01 
8.067753e-01 
8.276734e-01 
8.490090e-01 
8.707411e-01 
8.928318e-01 
1.225762e+00 
1.199484e+00 
1.172850e+00 
1.146164e+00 
1.119490e+00 
1.092901e+00 
1.066466e+00 
1.040263e+00 
1.014378e+00 
9.888765e-01 
9.637985e-01 
9.391555e-01 
9.149405e-01 
8.911432e-01 
8.677631e-01 
8.448144e-01 
8.223253e-01 
8.003319e-01 
7.788738e-01 
7.579901e-01 
7.377194e-01 
7.181000e-01 
6.991706e-01 
6.809715e-01 
6.635451e-01 
6.469370e-01 
6.311934e-01 
6.163687e-01 
6.025205e-01 
5.897066e-01 
5.779838e-01 
5.674062e-01 
5.580330e-01 
5.499213e-01 
5.431144e-01 
5.376478e-01 
5.335512e-01 
5.308475e-01 
5.295517e-01 
5.296698e-01 
5.311977e-01 
5.341219e-01 
5.384212e-01 
5.440686e-01 
5.510328e-01 
5.592795e-01 
5.687711e-01 
5.794663e-01 
5.913205e-01 
6.042850e-01 
6.183085e-01 
6.333372e-01 
6.493157e-01 
6.661873e-01 
6.838947e-01 
7.023805e-01 
7.215876e-01 
7.414596e-01 
7.619413e-01 
7.829759e-01 
8.045015e-01 
8.264732e-01 
8.488483e-01 
8.715870e-01 
1.210715e+00 
1.183950e+00 
1.156783e+00 
1.129566e+00 
1.102369e+00 
1.075272e+00 
1.048352e+00 
1.021701e+00 
9.954042e-01 
9.695165e-01 
9.440577e-01 
9.190199e-01 
8.943833e-01 
8.701341e-01 
8.462755e-01 
8.228290e-01 
7.998286e-01 
7.773136e-01 
7.553242e-01 
7.339003e-01 
7.130822e-01 
6.929117e-01 
6.734321e-01 
6.546878e-01 
6.367246e-01 
6.195896e-01 
6.033317e-01 
5.880025e-01 
5.736561e-01 
5.603534e-01 
5.481574e-01 
5.371303e-01 
5.273421e-01 
5.188614e-01 
5.117397e-01 
5.060175e-01 
5.017268e-01 
4.988920e-01 
4.975291e-01 
4.976450e-01 
4.992360e-01 
5.022877e-01 
5.067766e-01 
5.126715e-01 
5.199359e-01 
5.285293e-01 
5.384081e-01 
5.495255e-01 
5.618317e-01 
5.752737e-01 
5.897960e-01 
6.053412e-01 
6.218508e-01 
6.392658e-01 
6.575274e-01 
6.765772e-01 
6.963573e-01 
7.168113e-01 
7.378839e-01 
7.595204e-01 
7.816560e-01 
8.042445e-01 
8.272419e-01 
8.506074e-01 
1.196123e+00 
1.168878e+00 
1.141180e+00 
1.113433e+00 
1.085720e+00 
1.058125e+00 
1.030743e+00 
1.003676e+00 
9.770018e-01 
9.507518e-01 
9.249216e-01 
8.994850e-01 
8.744149e-01 
8.496998e-01 
8.253509e-01 
8.013980e-01 
7.778797e-01 
7.548366e-01 
7.323076e-01 
7.103312e-01 
6.889477e-01 
6.682009e-01 
6.481384e-01 
6.288108e-01 
6.102705e-01 
5.925705e-01 
5.757639e-01 
5.599021e-01 
5.450372e-01 
5.312309e-01 
5.185477e-01 
5.070524e-01 
4.968212e-01 
4.879347e-01 
4.804586e-01 
4.744451e-01 
4.699331e-01 
4.669497e-01 
4.655108e-01 
4.656222e-01 
4.672787e-01 
4.704647e-01 
4.751542e-01 
4.813131e-01 
4.889003e-01 
4.978697e-01 
5.081708e-01 
5.197499e-01 
5.325500e-01 
5.465115e-01 
5.615729e-01 
5.776718e-01 
5.947455e-01 
6.127319e-01 
6.315698e-01 
6.511992e-01 
6.715617e-01 
6.926005e-01 
7.142605e-01 
7.364884e-01 
7.592199e-01 
7.824075e-01 
8.060069e-01 
8.299768e-01 
1.182017e+00 
1.154298e+00 
1.126066e+00 
1.097790e+00 
1.069567e+00 
1.041489e+00 
1.013675e+00 
9.862302e-01 
9.592109e-01 
9.326147e-01 
9.064115e-01 
8.805646e-01 
8.550472e-01 
8.298556e-01 
8.050103e-01 
7.805470e-01 
7.565067e-01 
7.329290e-01 
7.098519e-01 
6.873129e-01 
6.653521e-01 
6.440131e-01 
6.233440e-01 
6.033977e-01 
5.842318e-01 
5.659075e-01 
5.484880e-01 
5.320363e-01 
5.166151e-01 
5.022862e-01 
4.891085e-01 
4.771446e-01 
4.664713e-01 
4.571721e-01 
4.493205e-01 
4.429820e-01 
4.382104e-01 
4.350447e-01 
4.335072e-01 
4.336045e-01 
4.353283e-01 
4.386583e-01 
4.435643e-01 
4.500078e-01 
4.579433e-01 
4.673191e-01 
4.780781e-01 
4.901584e-01 
5.034947e-01 
5.180190e-01 
5.336624e-01 
5.503558e-01 
5.680310e-01 
5.866218e-01 
6.060636e-01 
6.262946e-01 
6.472550e-01 
6.688876e-01 
6.911377e-01 
7.139525e-01 
7.372695e-01 
7.610413e-01 
7.852242e-01 
8.097774e-01 
1.168378e+00 
1.140186e+00 
1.111419e+00 
1.082616e+00 
1.053889e+00 
1.025352e+00 
9.971443e-01 
9.693610e-01 
9.420209e-01 
9.150756e-01 
8.884770e-01 
8.621926e-01 
8.362048e-01 
8.105212e-01 
7.851697e-01 
7.601880e-01 
7.356146e-01 
7.114865e-01 
6.878405e-01 
6.647157e-01 
6.421545e-01 
6.202025e-01 
5.989087e-01 
5.783254e-01 
5.585094e-01 
5.395229e-01 
5.214339e-01 
5.043157e-01 
4.882450e-01 
4.732976e-01 
4.595438e-01 
4.470544e-01 
4.359106e-01 
4.261924e-01 
4.179693e-01 
4.113057e-01 
4.062601e-01 
4.028815e-01 
4.012051e-01 
4.012480e-01 
4.030076e-01 
4.064639e-01 
4.115825e-01 
4.183188e-01 
4.266206e-01 
4.364284e-01 
4.476768e-01 
4.602945e-01 
4.742064e-01 
4.893350e-01 
5.056021e-01 
5.229309e-01 
5.412464e-01 
5.604770e-01 
5.805541e-01 
6.014128e-01 
6.229919e-01 
6.452333e-01 
6.680819e-01 
6.914848e-01 
7.153820e-01 
7.397287e-01 
7.644828e-01 
7.896077e-01 
1.155332e+00 
1.126665e+00 
1.097358e+00 
1.068033e+00 
1.038817e+00 
1.009863e+00 
9.813144e-01 
9.532408e-01 
9.255919e-01 
8.982854e-01 
8.712783e-01 
8.445487e-01 
8.180917e-01 
7.919246e-01 
7.660792e-01 
7.405906e-01 
7.154928e-01 
6.908184e-01 
6.666025e-01 
6.428849e-01 
6.197105e-01 
5.971287e-01 
5.751925e-01 
5.539583e-01 
5.334852e-01 
5.138362e-01 
4.950790e-01 
4.772863e-01 
4.605371e-01 
4.449156e-01 
4.305103e-01 
4.174105e-01 
4.057175e-01 
3.955289e-01 
3.869178e-01 
3.799453e-01 
3.746649e-01 
3.711223e-01 
3.693528e-01 
3.693777e-01 
3.712008e-01 
3.748071e-01 
3.801642e-01 
3.872250e-01 
3.959309e-01 
4.062137e-01 
4.179976e-01 
4.312005e-01 
4.457359e-01 
4.615158e-01 
4.784521e-01 
4.964592e-01 
5.154548e-01 
5.353610e-01 
5.561041e-01 
5.776157e-01 
5.998326e-01 
6.226958e-01 
6.461494e-01 
6.701397e-01 
6.946102e-01 
7.195191e-01 
7.448260e-01 
7.705055e-01 
1.142843e+00 
1.113698e+00 
1.083848e+00 
1.054008e+00 
1.024333e+00 
9.950149e-01 
9.661892e-01 
9.378497e-01 
9.098777e-01 
8.821917e-01 
8.547643e-01 
8.275865e-01 
8.006647e-01 
7.740220e-01 
7.476893e-01 
7.216978e-01 
6.960770e-01 
6.708568e-01 
6.460708e-01 
6.217574e-01 
5.979609e-01 
5.747313e-01 
5.521238e-01 
5.301992e-01 
5.090229e-01 
4.886651e-01 
4.692002e-01 
4.507064e-01 
4.332661e-01 
4.169655e-01 
4.018951e-01 
3.881484e-01 
3.758387e-01 
3.650845e-01 
3.559836e-01 
3.486161e-01 
3.430442e-01 
3.393136e-01 
3.374546e-01 
3.374833e-01 
3.394003e-01 
3.431905e-01 
3.488219e-01 
3.562455e-01 
3.653974e-01 
3.762006e-01 
3.885677e-01 
4.024044e-01 
4.176119e-01 
4.340901e-01 
4.517405e-01 
4.704679e-01 
4.901820e-01 
5.107971e-01 
5.322302e-01 
5.544118e-01 
5.772797e-01 
6.007744e-01 
6.248396e-01 
6.494199e-01 
6.744625e-01 
6.999278e-01 
7.257779e-01 
7.520245e-01 
1.130922e+00 
1.101292e+00 
1.070900e+00 
1.040557e+00 
1.010470e+00 
9.808614e-01 
9.518152e-01 
9.232004e-01 
8.948839e-01 
8.668053e-01 
8.389531e-01 
8.113304e-01 
7.839514e-01 
7.568395e-01 
7.300220e-01 
7.035260e-01 
6.773785e-01 
6.516093e-01 
6.262517e-01 
6.013436e-01 
5.769276e-01 
5.530513e-01 
5.297682e-01 
5.071386e-01 
4.852296e-01 
4.641158e-01 
4.438789e-01 
4.246069e-01 
4.063934e-01 
3.893362e-01 
3.735365e-01 
3.590977e-01 
3.461422e-01 
3.347982e-01 
3.251752e-01 
3.173686e-01 
3.114565e-01 
3.074965e-01 
3.055242e-01 
3.055547e-01 
3.075850e-01 
3.115951e-01 
3.175478e-01 
3.253882e-01 
3.350437e-01 
3.464264e-01 
3.594359e-01 
3.739639e-01 
3.898980e-01 
4.071255e-01 
4.255365e-01 
4.450256e-01 
4.654884e-01 
4.868343e-01 
5.089805e-01 
5.318540e-01 
5.553906e-01 
5.795304e-01 
6.042171e-01 
6.293924e-01 
6.550083e-01 
6.810263e-01 
7.074109e-01 
7.342278e-01 
1.119569e+00 
1.089453e+00 
1.058527e+00 
1.027712e+00 
9.972846e-01 
9.674772e-01 
9.382289e-01 
9.093250e-01 
8.806530e-01 
8.521813e-01 
8.239089e-01 
7.958497e-01 
7.680212e-01 
7.404440e-01 
7.131405e-01 
6.861345e-01 
6.594525e-01 
6.331250e-01 
6.071860e-01 
5.816736e-01 
5.566295e-01 
5.321003e-01 
5.081381e-01 
4.848019e-01 
4.621584e-01 
4.402824e-01 
4.192582e-01 
3.991788e-01 
3.801458e-01 
3.622682e-01 
3.456610e-01 
3.304428e-01 
3.167537e-01 
3.047408e-01 
2.945291e-01 
2.862276e-01 
2.799275e-01 
2.756978e-01 
2.735831e-01 
2.736034e-01 
2.757559e-01 
2.800163e-01 
2.863396e-01 
2.946595e-01 
3.048894e-01 
3.169251e-01 
3.306496e-01 
3.459377e-01 
3.626618e-01 
3.806950e-01 
3.999092e-01 
4.201881e-01 
4.414260e-01 
4.635285e-01 
4.864103e-01 
5.099956e-01 
5.342176e-01 
5.590157e-01 
5.843326e-01 
6.101088e-01 
6.363002e-01 
6.628690e-01 
6.897816e-01 
7.171648e-01 
1.108785e+00 
1.078186e+00 
1.046751e+00 
1.015522e+00 
9.848513e-01 
9.549175e-01 
9.254646e-01 
8.962614e-01 
8.672330e-01 
8.383704e-01 
8.096831e-01 
7.811946e-01 
7.529231e-01 
7.248851e-01 
6.970995e-01 
6.695870e-01 
6.423725e-01 
6.154855e-01 
5.889597e-01 
5.628330e-01 
5.371470e-01 
5.119479e-01 
4.872870e-01 
4.632223e-01 
4.398192e-01 
4.171529e-01 
3.953085e-01 
3.743830e-01 
3.544849e-01 
3.357338e-01 
3.182584e-01 
3.021941e-01 
2.877012e-01 
2.749479e-01 
2.640782e-01 
2.552187e-01 
2.484762e-01 
2.439334e-01 
2.416460e-01 
2.416426e-01 
2.439244e-01 
2.484651e-01 
2.552105e-01 
2.640786e-01 
2.749629e-01 
2.877370e-01 
3.022614e-01 
3.183901e-01 
3.359761e-01 
3.548646e-01 
3.749211e-01 
3.960252e-01 
4.180676e-01 
4.409504e-01 
4.645864e-01 
4.888982e-01 
5.138175e-01 
5.392828e-01 
5.652337e-01 
5.916138e-01 
6.183806e-01 
6.454974e-01 
6.729321e-01 
7.008786e-01 
1.098571e+00 
1.067499e+00 
1.035594e+00 
1.004038e+00 
9.732485e-01 
9.432130e-01 
9.135281e-01 
8.840179e-01 
8.546428e-01 
8.254025e-01 
7.963166e-01 
7.674122e-01 
7.387045e-01 
7.102087e-01 
6.819443e-01 