# vtk DataFile Version 2.0 
Quadtree Mesh 
ASCII 
DATASET UNSTRUCTURED_GRID 
POINTS 4096 double 
-1.000000e+00 -1.000000e+00 0.000000e+00
-9.682540e-01 -1.000000e+00 0.000000e+00
-9.365079e-01 -1.000000e+00 0.000000e+00
-9.047619e-01 -1.000000e+00 0.000000e+00
-8.730159e-01 -1.000000e+00 0.000000e+00
-8.412698e-01 -1.000000e+00 0.000000e+00
-8.095238e-01 -1.000000e+00 0.000000e+00
-7.777778e-01 -1.000000e+00 0.000000e+00
-7.460317e-01 -1.000000e+00 0.000000e+00
-7.142857e-01 -1.000000e+00 0.000000e+00
-6.825397e-01 -1.000000e+00 0.000000e+00
-6.507937e-01 -1.000000e+00 0.000000e+00
-6.190476e-01 -1.000000e+00 0.000000e+00
-5.873016e-01 -1.000000e+00 0.000000e+00
-5.555556e-01 -1.000000e+00 0.000000e+00
-5.238095e-01 -1.000000e+00 0.000000e+00
-4.920635e-01 -1.000000e+00 0.000000e+00
-4.603175e-01 -1.000000e+00 0.000000e+00
-4.285714e-01 -1.000000e+00 0.000000e+00
-3.968254e-01 -1.000000e+00 0.000000e+00
-3.650794e-01 -1.000000e+00 0.000000e+00
-3.333333e-01 -1.000000e+00 0.000000e+00
-3.015873e-01 -1.000000e+00 0.000000e+00
-2.698413e-01 -1.000000e+00 0.000000e+00
-2.380952e-01 -1.000000e+00 0.000000e+00
-2.063492e-01 -1.000000e+00 0.000000e+00
-1.746032e-01 -1.000000e+00 0.000000e+00
-1.428571e-01 -1.000000e+00 0.000000e+00
-1.111111e-01 -1.000000e+00 0.000000e+00
-7.936508e-02 -1.000000e+00 0.000000e+00
-4.761905e-02 -1.000000e+00 0.000000e+00
-1.587302e-02 -1.000000e+00 0.000000e+00
1.587302e-02 -1.000000e+00 0.000000e+00
4.761905e-02 -1.000000e+00 0.000000e+00
7.936508e-02 -1.000000e+00 0.000000e+00
1.111111e-01 -1.000000e+00 0.000000e+00
1.428571e-01 -1.000000e+00 0.000000e+00
1.746032e-01 -1.000000e+00 0.000000e+00
2.063492e-01 -1.000000e+00 0.000000e+00
2.380952e-01 -1.000000e+00 0.000000e+00
2.698413e-01 -1.000000e+00 0.000000e+00
3.015873e-01 -1.000000e+00 0.000000e+00
3.333333e-01 -1.000000e+00 0.000000e+00
3.650794e-01 -1.000000e+00 0.000000e+00
3.968254e-01 -1.000000e+00 0.000000e+00
4.285714e-01 -1.000000e+00 0.000000e+00
4.603175e-01 -1.000000e+00 0.000000e+00
4.920635e-01 -1.000000e+00 0.000000e+00
5.238095e-01 -1.000000e+00 0.000000e+00
5.555556e-01 -1.000000e+00 0.000000e+00
5.873016e-01 -1.000000e+00 0.000000e+00
6.190476e-01 -1.000000e+00 0.000000e+00
6.507937e-01 -1.000000e+00 0.000000e+00
6.825397e-01 -1.000000e+00 0.000000e+00
7.142857e-01 -1.000000e+00 0.000000e+00
7.460317e-01 -1.000000e+00 0.000000e+00
7.777778e-01 -1.000000e+00 0.000000e+00
8.095238e-01 -1.000000e+00 0.000000e+00
8.412698e-01 -1.000000e+00 0.000000e+00
8.730159e-01 -1.000000e+00 0.000000e+00
9.047619e-01 -1.000000e+00 0.000000e+00
9.365079e-01 -1.000000e+00 0.000000e+00
9.682540e-01 -1.000000e+00 0.000000e+00
1.000000e+00 -1.000000e+00 0.000000e+00
-1.000000e+00 -9.682540e-01 0.000000e+00
-9.682540e-01 -9.682540e-01 0.000000e+00
-9.365079e-01 -9.682540e-01 0.000000e+00
-9.047619e-01 -9.682540e-01 0.000000e+00
-8.730159e-01 -9.682540e-01 0.000000e+00
-8.412698e-01 -9.682540e-01 0.000000e+00
-8.095238e-01 -9.682540e-01 0.000000e+00
-7.777778e-01 -9.682540e-01 0.000000e+00
-7.460317e-01 -9.682540e-01 0.000000e+00
-7.142857e-01 -9.682540e-01 0.000000e+00
-6.825397e-01 -9.682540e-01 0.000000e+00
-6.507937e-01 -9.682540e-01 0.000000e+00
-6.190476e-01 -9.682540e-01 0.000000e+00
-5.873016e-01 -9.682540e-01 0.000000e+00
-5.555556e-01 -9.682540e-01 0.000000e+00
-5.238095e-01 -9.682540e-01 0.000000e+00
-4.920635e-01 -9.682540e-01 0.000000e+00
-4.603175e-01 -9.682540e-01 0.000000e+00
-4.285714e-01 -9.682540e-01 0.000000e+00
-3.968254e-01 -9.682540e-01 0.000000e+00
-3.650794e-01 -9.682540e-01 0.000000e+00
-3.333333e-01 -9.682540e-01 0.000000e+00
-3.015873e-01 -9.682540e-01 0.000000e+00
-2.698413e-01 -9.682540e-01 0.000000e+00
-2.380952e-01 -9.682540e-01 0.000000e+00
-2.063492e-01 -9.682540e-01 0.000000e+00
-1.746032e-01 -9.682540e-01 0.000000e+00
-1.428571e-01 -9.682540e-01 0.000000e+00
-1.111111e-01 -9.682540e-01 0.000000e+00
-7.936508e-02 -9.682540e-01 0.000000e+00
-4.761905e-02 -9.682540e-01 0.000000e+00
-1.587302e-02 -9.682540e-01 0.000000e+00
1.587302e-02 -9.682540e-01 0.000000e+00
4.761905e-02 -9.682540e-01 0.000000e+00
7.936508e-02 -9.682540e-01 0.000000e+00
1.111111e-01 -9.682540e-01 0.000000e+00
1.428571e-01 -9.682540e-01 0.000000e+00
1.746032e-01 -9.682540e-01 0.000000e+00
2.063492e-01 -9.682540e-01 0.000000e+00
2.380952e-01 -9.682540e-01 0.000000e+00
2.698413e-01 -9.682540e-01 0.000000e+00
3.015873e-01 -9.682540e-01 0.000000e+00
3.333333e-01 -9.682540e-01 0.000000e+00
3.650794e-01 -9.682540e-01 0.000000e+00
3.968254e-01 -9.682540e-01 0.000000e+00
4.285714e-01 -9.682540e-01 0.000000e+00
4.603175e-01 -9.682540e-01 0.000000e+00
4.920635e-01 -9.682540e-01 0.000000e+00
5.238095e-01 -9.682540e-01 0.000000e+00
5.555556e-01 -9.682540e-01 0.000000e+00
5.873016e-01 -9.682540e-01 0.000000e+00
6.190476e-01 -9.682540e-01 0.000000e+00
6.507937e-01 -9.682540e-01 0.000000e+00
6.825397e-01 -9.682540e-01 0.000000e+00
7.142857e-01 -9.682540e-01 0.000000e+00
7.460317e-01 -9.682540e-01 0.000000e+00
7.777778e-01 -9.682540e-01 0.000000e+00
8.095238e-01 -9.682540e-01 0.000000e+00
8.412698e-01 -9.682540e-01 0.000000e+00
8.730159e-01 -9.682540e-01 0.000000e+00
9.047619e-01 -9.682540e-01 0.000000e+00
9.365079e-01 -9.682540e-01 0.000000e+00
9.682540e-01 -9.682540e-01 0.000000e+00
1.000000e+00 -9.682540e-01 0.000000e+00
-1.000000e+00 -9.365079e-01 0.000000e+00
-9.682540e-01 -9.365079e-01 0.000000e+00
-9.365079e-01 -9.365079e-01 0.000000e+00
-9.047619e-01 -9.365079e-01 0.000000e+00
-8.730159e-01 -9.365079e-01 0.000000e+00
-8.412698e-01 -9.365079e-01 0.000000e+00
-8.095238e-01 -9.365079e-01 0.000000e+00
-7.777778e-01 -9.365079e-01 0.000000e+00
-7.460317e-01 -9.365079e-01 0.000000e+00
-7.142857e-01 -9.365079e-01 0.000000e+00
-6.825397e-01 -9.365079e-01 0.000000e+00
-6.507937e-01 -9.365079e-01 0.000000e+00
-6.190476e-01 -9.365079e-01 0.000000e+00
-5.873016e-01 -9.365079e-01 0.000000e+00
-5.555556e-01 -9.365079e-01 0.000000e+00
-5.238095e-01 -9.365079e-01 0.000000e+00
-4.920635e-01 -9.365079e-01 0.000000e+00
-4.603175e-01 -9.365079e-01 0.000000e+00
-4.285714e-01 -9.365079e-01 0.000000e+00
-3.968254e-01 -9.365079e-01 0.000000e+00
-3.650794e-01 -9.365079e-01 0.000000e+00
-3.333333e-01 -9.365079e-01 0.000000e+00
-3.015873e-01 -9.365079e-01 0.000000e+00
-2.698413e-01 -9.365079e-01 0.000000e+00
-2.380952e-01 -9.365079e-01 0.000000e+00
-2.063492e-01 -9.365079e-01 0.000000e+00
-1.746032e-01 -9.365079e-01 0.000000e+00
-1.428571e-01 -9.365079e-01 0.000000e+00
-1.111111e-01 -9.365079e-01 0.000000e+00
-7.936508e-02 -9.365079e-01 0.000000e+00
-4.761905e-02 -9.365079e-01 0.000000e+00
-1.587302e-02 -9.365079e-01 0.000000e+00
1.587302e-02 -9.365079e-01 0.000000e+00
4.761905e-02 -9.365079e-01 0.000000e+00
7.936508e-02 -9.365079e-01 0.000000e+00
1.111111e-01 -9.365079e-01 0.000000e+00
1.428571e-01 -9.365079e-01 0.000000e+00
1.746032e-01 -9.365079e-01 0.000000e+00
2.063492e-01 -9.365079e-01 0.000000e+00
2.380952e-01 -9.365079e-01 0.000000e+00
2.698413e-01 -9.365079e-01 0.000000e+00
3.015873e-01 -9.365079e-01 0.000000e+00
3.333333e-01 -9.365079e-01 0.000000e+00
3.650794e-01 -9.365079e-01 0.000000e+00
3.968254e-01 -9.365079e-01 0.000000e+00
4.285714e-01 -9.365079e-01 0.000000e+00
4.603175e-01 -9.365079e-01 0.000000e+00
4.920635e-01 -9.365079e-01 0.000000e+00
5.238095e-01 -9.365079e-01 0.000000e+00
5.555556e-01 -9.365079e-01 0.000000e+00
5.873016e-01 -9.365079e-01 0.000000e+00
6.190476e-01 -9.365079e-01 0.000000e+00
6.507937e-01 -9.365079e-01 0.000000e+00
6.825397e-01 -9.365079e-01 0.000000e+00
7.142857e-01 -9.365079e-01 0.000000e+00
7.460317e-01 -9.365079e-01 0.000000e+00
7.777778e-01 -9.365079e-01 0.000000e+00
8.095238e-01 -9.365079e-01 0.000000e+00
8.412698e-01 -9.365079e-01 0.000000e+00
8.730159e-01 -9.365079e-01 0.000000e+00
9.047619e-01 -9.365079e-01 0.000000e+00
9.365079e-01 -9.365079e-01 0.000000e+00
9.682540e-01 -9.365079e-01 0.000000e+00
1.000000e+00 -9.365079e-01 0.000000e+00
-1.000000e+00 -9.047619e-01 0.000000e+00
-9.682540e-01 -9.047619e-01 0.000000e+00
-9.365079e-01 -9.047619e-01 0.000000e+00
-9.047619e-01 -9.047619e-01 0.000000e+00
-8.730159e-01 -9.047619e-01 0.000000e+00
-8.412698e-01 -9.047619e-01 0.000000e+00
-8.095238e-01 -9.047619e-01 0.000000e+00
-7.777778e-01 -9.047619e-01 0.000000e+00
-7.460317e-01 -9.047619e-01 0.000000e+00
-7.142857e-01 -9.047619e-01 0.000000e+00
-6.825397e-01 -9.047619e-01 0.000000e+00
-6.507937e-01 -9.047619e-01 0.000000e+00
-6.190476e-01 -9.047619e-01 0.000000e+00
-5.873016e-01 -9.047619e-01 0.000000e+00
-5.555556e-01 -9.047619e-01 0.000000e+00
-5.238095e-01 -9.047619e-01 0.000000e+00
-4.920635e-01 -9.047619e-01 0.000000e+00
-4.603175e-01 -9.047619e-01 0.000000e+00
-4.285714e-01 -9.047619e-01 0.000000e+00
-3.968254e-01 -9.047619e-01 0.000000e+00
-3.650794e-01 -9.047619e-01 0.000000e+00
-3.333333e-01 -9.047619e-01 0.000000e+00
-3.015873e-01 -9.047619e-01 0.000000e+00
-2.698413e-01 -9.047619e-01 0.000000e+00
-2.380952e-01 -9.047619e-01 0.000000e+00
-2.063492e-01 -9.047619e-01 0.000000e+00
-1.746032e-01 -9.047619e-01 0.000000e+00
-1.428571e-01 -9.047619e-01 0.000000e+00
-1.111111e-01 -9.047619e-01 0.000000e+00
-7.936508e-02 -9.047619e-01 0.000000e+00
-4.761905e-02 -9.047619e-01 0.000000e+00
-1.587302e-02 -9.047619e-01 0.000000e+00
1.587302e-02 -9.047619e-01 0.000000e+00
4.761905e-02 -9.047619e-01 0.000000e+00
7.936508e-02 -9.047619e-01 0.000000e+00
1.111111e-01 -9.047619e-01 0.000000e+00
1.428571e-01 -9.047619e-01 0.000000e+00
1.746032e-01 -9.047619e-01 0.000000e+00
2.063492e-01 -9.047619e-01 0.000000e+00
2.380952e-01 -9.047619e-01 0.000000e+00
2.698413e-01 -9.047619e-01 0.000000e+00
3.015873e-01 -9.047619e-01 0.000000e+00
3.333333e-01 -9.047619e-01 0.000000e+00
3.650794e-01 -9.047619e-01 0.000000e+00
3.968254e-01 -9.047619e-01 0.000000e+00
4.285714e-01 -9.047619e-01 0.000000e+00
4.603175e-01 -9.047619e-01 0.000000e+00
4.920635e-01 -9.047619e-01 0.000000e+00
5.238095e-01 -9.047619e-01 0.000000e+00
5.555556e-01 -9.047619e-01 0.000000e+00
5.873016e-01 -9.047619e-01 0.000000e+00
6.190476e-01 -9.047619e-01 0.000000e+00
[...]
POINT_DATA 4096 
SCALARS concentration double 1 
LOOKUP_TABLE default 
1.164966e+00 
1.141382e+00 
1.117566e+00 
1.093563e+00 
1.069419e+00 
1.045182e+00 
1.020904e+00 
9.966386e-01 
9.724453e-01 
9.483862e-01 
9.245277e-01 
9.009398e-01 
8.776939e-01 
8.548542e-01 
8.324862e-01 
8.106606e-01 
7.894524e-01 
7.689397e-01 
7.492012e-01 
7.303151e-01 
7.123617e-01 
6.954262e-01 
6.795943e-01 
6.649479e-01 
6.515651e-01 
6.395209e-01 
6.288873e-01 
6.197332e-01 
6.121247e-01 
6.061253e-01 
6.017976e-01 
5.992054e-01 
5.984059e-01 
5.994113e-01 
6.022138e-01 
6.067827e-01 
6.130647e-01 
6.209877e-01 
6.304670e-01 
6.414121e-01 
6.537312e-01 
6.673348e-01 
6.821365e-01 
6.980532e-01 
7.150057e-01 
7.329174e-01 
7.517152e-01 
7.713289e-01 
7.916915e-01 
8.127394e-01 
8.344120e-01 
8.566526e-01 
8.794077e-01 
9.026276e-01 
9.262659e-01 
9.502801e-01 
9.746312e-01 
9.992837e-01 
1.024206e+00 
1.049369e+00 
1.074747e+00 
1.100319e+00 
1.126065e+00 
1.151968e+00 
1.145924e+00 
1.121532e+00 
1.096893e+00 
1.072050e+00 
1.047049e+00 
1.021937e+00 
9.967689e-01 
9.715997e-01 
9.464906e-01 
9.215071e-01 
8.967191e-01 
8.722010e-01 
8.480281e-01 
8.242556e-01 
8.009484e-01 
7.781829e-01 
7.560400e-01 
7.346037e-01 
7.139537e-01 
6.941682e-01 
6.753308e-01 
6.575390e-01 
6.408865e-01 
6.254526e-01 
6.113107e-01 
5.985315e-01 
5.871823e-01 
5.773260e-01 
5.690197e-01 
5.623134e-01 
5.572485e-01 
5.538569e-01 
5.530039e-01 
5.540736e-01 
5.570672e-01 
5.619614e-01 
5.687038e-01 
5.772145e-01 
5.873934e-01 
5.991297e-01 
6.123099e-01 
6.268242e-01 
6.425689e-01 
6.594476e-01 
6.773705e-01 
6.962541e-01 
7.160201e-01 
7.365947e-01 
7.579083e-01 
7.798953e-01 
8.024938e-01 
8.256457e-01 
8.492963e-01 
8.733948e-01 
8.978940e-01 
9.227503e-01 
9.479238e-01 
9.733781e-01 
9.990805e-01 
1.025002e+00 
1.051116e+00 
1.077400e+00 
1.103834e+00 
1.130400e+00 
1.127074e+00 
1.101881e+00 
1.076422e+00 
1.050738e+00 
1.024875e+00 
9.988844e-01 
9.728196e-01 
9.467396e-01 
9.207080e-01 
8.947938e-01 
8.690709e-01 
8.436184e-01 
8.185172e-01 
7.938285e-01 
7.696179e-01 
7.459648e-01 
7.229548e-01 
7.006774e-01 
6.792242e-01 
6.586874e-01 
6.391575e-01 
6.207246e-01 
6.034758e-01 
5.874940e-01 
5.728582e-01 
5.596439e-01 
5.479217e-01 
5.377575e-01 
5.292116e-01 
5.223380e-01 
5.171827e-01 
5.137825e-01 
5.121742e-01 
5.124072e-01 
5.145506e-01 
5.188020e-01 
5.251799e-01 
5.336278e-01 
5.440273e-01 
5.562160e-01 
5.700497e-01 
5.853968e-01 
6.021110e-01 
6.200384e-01 
6.390519e-01 
6.590394e-01 
6.799044e-01 
7.015647e-01 
7.239387e-01 
7.469590e-01 
7.705753e-01 
7.947021e-01 
8.192910e-01 
8.443124e-01 
8.697188e-01 
8.954586e-01 
9.214740e-01 
9.477391e-01 
9.742276e-01 
1.000913e+00 
1.027770e+00 
1.054773e+00 
1.081902e+00 
1.109143e+00 
1.108489e+00 
1.082501e+00 
1.056223e+00 
1.029696e+00 
1.002970e+00 
9.760966e-01 
9.491322e-01 
9.221382e-01 
8.951819e-01 
8.683364e-01 
8.416805e-01 
8.152985e-01 
7.892763e-01 
7.636809e-01 
7.385799e-01 
7.140545e-01 
6.901959e-01 
6.671008e-01 
6.448680e-01 
6.235960e-01 
6.033819e-01 
5.843205e-01 
5.665028e-01 
5.500156e-01 
5.349407e-01 
5.213543e-01 
5.093272e-01 
4.989248e-01 
4.902084e-01 
4.832352e-01 
4.780567e-01 
4.747180e-01 
4.733000e-01 
4.738099e-01 
4.762427e-01 
4.806391e-01 
4.869894e-01 
4.951804e-01 
5.051400e-01 
5.169093e-01 
5.305397e-01 
5.459479e-01 
5.629862e-01 
5.814913e-01 
6.012778e-01 
6.221798e-01 
6.440825e-01 
6.667729e-01 
6.902182e-01 
7.143073e-01 
7.389510e-01 
7.640696e-01 
7.895947e-01 
8.155271e-01 
8.418482e-01 
8.684667e-01 
8.953376e-01 
9.224266e-01 
9.497074e-01 
9.771571e-01 
1.004754e+00 
1.032476e+00 
1.060303e+00 
1.088234e+00 
1.090234e+00 
1.063462e+00 
1.036364e+00 
1.008995e+00 
9.814046e-01 
9.536480e-01 
9.257835e-01 
8.978761e-01 
8.699978e-01 
8.422272e-01 
8.146485e-01 
7.873518e-01 
7.604281e-01 
7.339487e-01 
7.079852e-01 
6.826285e-01 
6.579789e-01 
6.341409e-01 
6.112202e-01 
5.893215e-01 
5.685462e-01 
5.489915e-01 
5.307495e-01 
5.139062e-01 
4.985413e-01 
4.847280e-01 
4.725343e-01 
4.620232e-01 
4.532543e-01 
4.462929e-01 
4.411938e-01 
4.380038e-01 
4.367957e-01 
4.376475e-01 
4.405580e-01 
4.454720e-01 
4.523014e-01 
4.608406e-01 
4.709974e-01 
4.827352e-01 
4.959876e-01 
5.108634e-01 
5.272726e-01 
5.454813e-01 
5.653048e-01 
5.865555e-01 
6.090557e-01 
6.325962e-01 
6.569182e-01 
6.820272e-01 
7.077311e-01 
7.338836e-01 
7.603984e-01 
7.872585e-01 
8.144388e-01 
8.419037e-01 
8.696113e-01 
8.975213e-01 
9.255991e-01 
9.538172e-01 
9.821534e-01 
1.010589e+00 
1.039105e+00 
1.067725e+00 
1.072374e+00 
1.044828e+00 
1.016910e+00 
9.887012e-01 
9.602502e-01 
9.316128e-01 
9.028511e-01 
8.740350e-01 
8.452428e-01 
8.165612e-01 
7.880838e-01 
7.599091e-01 
7.321335e-01 
7.048300e-01 
6.780790e-01 
6.519802e-01 
6.266415e-01 
6.021740e-01 
5.786885e-01 
5.562926e-01 
5.350889e-01 
5.151739e-01 
4.966366e-01 
4.795586e-01 
4.640160e-01 
4.500767e-01 
4.378104e-01 
4.272824e-01 
4.185388e-01 
4.116263e-01 
4.065984e-01 
4.035178e-01 
4.024789e-01 
4.035808e-01 
4.068792e-01 
4.122471e-01 
4.195501e-01 
4.285270e-01 
4.391197e-01 
4.511914e-01 
4.646854e-01 
4.795782e-01 
4.958710e-01 
5.135581e-01 
5.327294e-01 
5.535095e-01 
5.758989e-01 
5.996980e-01 
6.245847e-01 
6.503604e-01 
6.769940e-01 
7.041790e-01 
7.317025e-01 
7.595121e-01 
7.875799e-01 
8.158856e-01 
8.444052e-01 
8.731093e-01 
9.019656e-01 
9.309433e-01 
9.600158e-01 
9.891613e-01 
1.018362e+00 
1.047671e+00 
1.054970e+00 
1.026661e+00 
9.979355e-01 
9.688966e-01 
9.395970e-01 
9.100926e-01 
8.804486e-01 
8.507410e-01 
8.210573e-01 
7.914953e-01 
7.621588e-01 
7.331551e-01 
7.045844e-01 
6.765219e-01 
6.490611e-01 
6.223123e-01 
5.963919e-01 
5.714159e-01 
5.474966e-01 
5.247402e-01 
5.032451e-01 
4.831039e-01 
4.643967e-01 
4.471975e-01 
4.315763e-01 
4.175887e-01 
4.052744e-01 
3.946745e-01 
3.858401e-01 
3.788357e-01 
3.737388e-01 
3.706389e-01 
3.696688e-01 
3.709420e-01 
3.745201e-01 
3.802710e-01 
3.879604e-01 
3.974083e-01 
4.084434e-01 
4.210100e-01 
4.349224e-01 
4.502283e-01 
4.667854e-01 
4.846113e-01 
5.036954e-01 
5.240953e-01 
5.458859e-01 
5.691631e-01 
5.939826e-01 
6.199919e-01 
6.470855e-01 
6.750889e-01 
7.035527e-01 
7.323123e-01 
7.612975e-01 
7.904711e-01 
8.198118e-01 
8.493012e-01 
8.789178e-01 
9.086362e-01 
9.384305e-01 
9.682768e-01 
9.981549e-01 
1.028137e+00 
1.038067e+00 
1.009011e+00 
9.794922e-01 
9.496374e-01 
9.195004e-01 
8.891410e-01 
8.586303e-01 
8.280538e-01 
7.975111e-01 
7.671135e-01 
7.369762e-01 
7.072130e-01 
6.779252e-01 
6.491951e-01 
6.211324e-01 
5.938579e-01 
5.674930e-01 
5.421529e-01 
5.179447e-01 
4.949667e-01 
4.733058e-01 
4.530529e-01 
4.342696e-01 
4.169910e-01 
4.012458e-01 
3.870699e-01 
3.745126e-01 
3.636378e-01 
3.545243e-01 
3.472638e-01 
3.419601e-01 
3.387279e-01 
3.377313e-01 
3.391059e-01 
3.429013e-01 
3.489650e-01 
3.570617e-01 
3.669565e-01 
3.785148e-01 
3.915926e-01 
4.060971e-01 
4.218949e-01 
4.390184e-01 
4.572205e-01 
4.766915e-01 
4.971882e-01 
5.189338e-01 
5.418138e-01 
5.660979e-01 
5.917886e-01 
6.187729e-01 
6.470628e-01 
6.762467e-01 
7.058382e-01 
7.356924e-01 
7.657232e-01 
7.958842e-01 
8.261522e-01 
8.565128e-01 
8.869499e-01 
9.174438e-01 
9.479721e-01 
9.785136e-01 
1.009169e+00 
1.021436e+00 
9.916458e-01 
9.613479e-01 
9.306957e-01 
8.997384e-01 
8.685401e-01 
8.371829e-01 
8.057665e-01 
7.744064e-01 
7.432287e-01 
7.123621e-01 
6.819283e-01 
6.520227e-01 
6.227461e-01 
5.942211e-01 
5.665733e-01 
5.399205e-01 
5.143670e-01 
4.900034e-01 
4.669127e-01 
4.451641e-01 
4.248041e-01 
4.058524e-01 
3.883202e-01 
3.722377e-01 
3.576618e-01 
3.446721e-01 
3.333651e-01 
3.238496e-01 
3.162436e-01 
3.106733e-01 
3.072738e-01 
3.062352e-01 
3.077115e-01 
3.117478e-01 
3.181494e-01 
3.266935e-01 
3.371035e-01 
3.492506e-01 
3.629291e-01 
3.780876e-01 
3.945304e-01 
4.122710e-01 
4.311157e-01 
4.510812e-01 
4.720990e-01 
4.940793e-01 
5.171580e-01 
5.412215e-01 
5.665701e-01 
5.931511e-01 
6.211070e-01 
6.504323e-01 
6.806244e-01 
7.112046e-01 
7.420253e-01 
7.729851e-01 
8.040260e-01 
8.351203e-01 
8.662552e-01 
8.974198e-01 
9.285997e-01 
9.597773e-01 
9.910801e-01 
1.005703e+00 
9.752045e-01 
9.441476e-01 
9.127089e-01 
8.809464e-01 
8.489347e-01 
8.167692e-01 
7.845668e-01 
7.524613e-01 
7.205946e-01 
6.891049e-01 
6.581129e-01 
6.277129e-01 
5.980259e-01 
5.691813e-01 
5.412992e-01 
5.144812e-01 
4.888065e-01 
4.643370e-01 
4.411326e-01 
4.192094e-01 
3.985580e-01 
3.791846e-01 
3.611264e-01 
3.444522e-01 
3.292560e-01 
3.156503e-01 
3.037621e-01 
2.937237e-01 
2.856756e-01 
2.797623e-01 
2.761339e-01 
2.750011e-01 
2.765328e-01 
2.807804e-01 
2.875204e-01 
2.965270e-01 
3.075050e-01 
3.202700e-01 
3.346436e-01 
3.504735e-01 
3.676635e-01 
3.860638e-01 
4.056342e-01 
4.262038e-01 
4.478416e-01 
4.703334e-01 
4.937752e-01 
5.181271e-01 
5.433817e-01 
5.698031e-01 
5.973233e-01 
6.261966e-01 
6.564343e-01 
6.875158e-01 
7.189722e-01 
7.506449e-01 
7.824234e-01 
8.142427e-01 
8.460708e-01 
8.778941e-01 
9.097040e-01 
9.414901e-01 
9.734295e-01 
9.906361e-01 
9.594515e-01 
9.276554e-01 
8.954568e-01 
8.629209e-01 
8.301361e-01 
7.972168e-01 
7.643010e-01 
7.315412e-01 
6.990920e-01 
6.670945e-01 
6.356600e-01 
6.049009e-01 
5.749468e-01 
5.459183e-01 
5.179122e-01 
4.909967e-01 
4.652131e-01 
4.405908e-01 
4.171129e-01 
3.947591e-01 
3.735357e-01 
3.534857e-01 
3.346877e-01 
3.172452e-01 
3.012827e-01 
2.869417e-01 
2.743778e-01 
2.637509e-01 
2.552207e-01 
2.489465e-01 
2.450894e-01 
2.438738e-01 
2.454836e-01 
2.499749e-01 
2.571178e-01 
2.666313e-01 
2.782618e-01 
2.917196e-01 
3.068520e-01 
3.234656e-01 
3.414410e-01 
3.606268e-01 
3.809499e-01 
4.022708e-01 
4.245273e-01 
4.477115e-01 
4.716236e-01 
4.964599e-01 
5.219871e-01 
5.484233e-01 
5.758835e-01 
6.043414e-01 
6.341287e-01 
6.652545e-01 
6.971181e-01 
7.293375e-01 
7.617489e-01 
7.942361e-01 
8.267296e-01 
8.591947e-01 
8.916166e-01 
9.239874e-01 
9.565249e-01 
9.762835e-01 
9.444384e-01 
9.119254e-01 
8.789898e-01 
8.457089e-01 
8.121919e-01 
7.785790e-01 
7.450333e-01 
7.117250e-01 
6.788155e-01 
6.464402e-01 
6.147047e-01 
5.837360e-01 
5.536518e-01 
5.245406e-01 
4.964540e-01 
4.694116e-01 
4.434158e-01 
4.184245e-01 
3.944009e-01 
3.713564e-01 
3.493347e-01 
3.284155e-01 
3.087112e-01 
2.903532e-01 
2.735058e-01 
2.583447e-01 
2.450486e-01 
2.337957e-01 
2.247626e-01 
2.181238e-01 
2.140535e-01 
2.127934e-01 
2.145315e-01 
2.193226e-01 
2.269318e-01 
2.370571e-01 
2.493900e-01 
2.636377e-01 
2.796072e-01 
2.970773e-01 
3.159076e-01 
3.359708e-01 
3.570930e-01 
3.792456e-01 
4.022392e-01 
4.261012e-01 
4.506768e-01 
4.759693e-01 
5.020479e-01 
5.286984e-01 
5.562885e-01 
5.846689e-01 
6.140396e-01 
6.447828e-01 
6.767230e-01 
7.092612e-01 
7.421354e-01 
7.751812e-01 
8.082789e-01 
8.413552e-01 
8.743726e-01 
9.073147e-01 
9.404232e-01 
9.626930e-01 
9.302155e-01 
8.970108e-01 
8.633671e-01 
8.293804e-01 
7.951882e-01 
7.609618e-01 
7.268898e-01 
6.931551e-01 
6.599155e-01 
6.272898e-01 
5.953964e-01 
5.643492e-01 
5.342259e-01 
5.050571e-01 
4.768330e-01 
4.495213e-01 
4.230738e-01 
3.974503e-01 
3.726455e-01 
3.487001e-01 
3.256969e-01 
3.037546e-01 
2.830200e-01 
2.636641e-01 
2.458743e-01 
2.298450e-01 
2.157739e-01 
2.038591e-01 
1.942979e-01 
1.872852e-01 
1.830124e-01 
1.817457e-01 
1.836771e-01 
1.888488e-01 
1.970111e-01 
2.078356e-01 
2.209621e-01 
2.360985e-01 
2.529644e-01 
2.713917e-01 
2.911525e-01 
3.121212e-01 
3.341454e-01 
3.571298e-01 
3.809418e-01 
4.055213e-01 
4.308231e-01 
4.566988e-01 
4.832720e-01 
5.104080e-01 
5.381667e-01 
5.667892e-01 
5.960214e-01 
6.263293e-01 
6.580383e-01 
6.907099e-01 
7.238485e-01 
7.572801e-01 
7.908527e-01 
8.244538e-01 
8.580125e-01 
8.914910e-01 
9.251615e-01 
9.499116e-01 
9.168320e-01 
8.829637e-01 
8.486470e-01 
8.140050e-01 
7.792104e-01 
7.444678e-01 
7.099865e-01 
6.759526e-01 
6.425062e-01 
6.097630e-01 
5.778319e-01 
5.467840e-01 
5.166284e-01 
4.873210e-01 
4.587932e-01 
4.309804e-01 
4.038401e-01 
3.773661e-01 
3.515957e-01 
3.266102e-01 
3.025281e-01 
2.794975e-01 
2.576901e-01 
2.372956e-01 
2.185178e-01 
2.015702e-01 
1.866724e-01 
1.740476e-01 
1.639199e-01 
1.565106e-01 
1.520351e-01 
1.507925e-01 
1.529795e-01 
1.586193e-01 
1.674230e-01 
1.790478e-01 
1.930783e-01 
2.091818e-01 
2.270686e-01 
2.465111e-01 
2.672804e-01 
2.892455e-01 
3.122116e-01 
3.360692e-01 
3.607488e-01 
3.860858e-01 
4.120875e-01 
4.386306e-01 
4.657324e-01 
4.933924e-01 
5.215054e-01 
5.502994e-01 
5.797683e-01 
6.098266e-01 
6.411116e-01 
6.736869e-01 
7.069774e-01 
7.406699e-01 
7.745980e-01 
8.086225e-01 
8.426431e-01 
8.765972e-01 
9.107976e-01 
9.379838e-01 
9.043348e-01 
8.698352e-01 
8.348868e-01 
7.996522e-01 
7.643456e-01 
7.292021e-01 
6.944417e-01 
6.602387e-01 
6.267115e-01 
5.939691e-01 
5.620747e-01 
5.310267e-01 
5.007444e-01 
4.711141e-01 
4.420441e-01 
4.134968e-01 
3.854750e-01 
3.580228e-01 
3.312189e-01 
3.051738e-01 
2.800241e-01 
2.559265e-01 
2.330570e-01 
2.116112e-01 
1.918048e-01 
1.738727e-01 
1.580656e-01 
1.446442e-01 
1.338725e-01 
1.260097e-01 
1.213029e-01 
1.200868e-01 
1.225670e-01 
1.287494e-01 
1.382946e-01 
1.508208e-01 
1.658487e-01 
1.830338e-01 
2.020159e-01 
2.225503e-01 
2.444051e-01 
2.673845e-01 
2.913439e-01 
3.161439e-01 
3.416728e-01 
3.678240e-01 
3.945667e-01 
4.217926e-01 
4.494789e-01 
4.776276e-01 
5.062128e-01 
5.352702e-01 
5.649660e-01 
5.951275e-01 
6.260651e-01 
6.583102e-01 
6.915926e-01 
7.254246e-01 
7.595986e-01 
7.939528e-01 
8.283580e-01 
8.627251e-01 
8.973986e-01 
9.269162e-01 
8.927323e-01 
8.576514e-01 
8.221245e-01 
7.863735e-01 
7.506592e-01 
7.152408e-01 
6.803329e-01 
6.460812e-01 
6.125968e-01 
5.799363e-01 
5.480739e-01 
5.169130e-01 
4.863096e-01 
4.561287e-01 
4.263258e-01 
3.969194e-01 
3.679754e-01 
3.395726e-01 
3.117967e-01 
2.847629e-01 
2.586058e-01 
2.334772e-01 
2.095487e-01 
1.870184e-01 
1.661150e-01 
1.471004e-01 
1.302655e-01 
1.159215e-01 
1.043874e-01 
9.597457e-02 
9.097289e-02 
8.976478e-02 
9.256774e-02 
9.936340e-02 
1.097559e-01 
1.233125e-01 
1.394866e-01 
1.578505e-01 
1.780400e-01 
1.997593e-01 
2.227392e-01 
2.467993e-01 
2.717761e-01 
2.975029e-01 
3.239021e-01 
3.508765e-01 
3.783286e-01 
4.062049e-01 
4.344761e-01 
4.631335e-01 
4.921718e-01 
5.216155e-01 
5.515454e-01 
5.819455e-01 
6.127746e-01 
6.446368e-01 
6.777320e-01 
7.115975e-01 
7.459094e-01 
7.804985e-01 
8.152121e-01 
8.499311e-01 
8.850182e-01 
9.163826e-01 
8.816961e-01 
8.460242e-01 
8.099669e-01 
7.737831e-01 
7.377713e-01 
7.021996e-01 
6.672565e-01 
6.330718e-01 
5.997103e-01 
5.671392e-01 
5.352266e-01 
5.037876e-01 
4.726772e-01 
4.418383e-01 
4.112856e-01 
3.810782e-01 
3.513007e-01 
3.220429e-01 
2.933820e-01 
2.654222e-01 
2.382876e-01 
2.121232e-01 
1.871002e-01 
1.634244e-01 
1.413434e-01 
1.211507e-01 
1.031837e-01 
8.781313e-02 
7.542579e-02 
6.640107e-02 
6.108608e-02 
5.992684e-02 
6.316189e-02 
7.072580e-02 
8.215484e-02 
9.694433e-02 
1.144435e-01 
1.341452e-01 
1.556386e-01 
1.786064e-01 
2.027719e-01 
2.279354e-01 
2.539165e-01 
2.806133e-01 
3.078972e-01 
3.356450e-01 
3.638000e-01 
3.923178e-01 
4.211687e-01 
4.503391e-01 
4.798277e-01 
5.096540e-01 
5.398672e-01 
5.704953e-01 
6.015246e-01 
6.331165e-01 
6.658701e-01 
6.996381e-01 
7.339779e-01 
7.686910e-01 
8.036156e-01 
8.386165e-01 
8.740424e-01 
9.072234e-01 
8.720781e-01 
8.358992e-01 
7.993878e-01 
7.628759e-01 
7.266928e-01 
6.910926e-01 
6.562331e-01 
6.222057e-01 
5.889790e-01 
5.564021e-01 
5.242588e-01 
4.923783e-01 
4.606907e-01 
4.292031e-01 
3.979650e-01 
3.670452e-01 
3.365196e-01 
3.064681e-01 
2.769650e-01 
2.480936e-01 
2.199645e-01 
1.927175e-01 
1.665264e-01 
1.416073e-01 
1.182278e-01 
9.671441e-02 
7.745371e-02 
6.088328e-02 
4.747029e-02 
3.767843e-02 
3.192973e-02 
3.075367e-02 
3.441570e-02 
4.280203e-02 
5.537522e-02 
7.150485e-02 
9.042901e-02 
1.115576e-01 
1.344230e-01 
1.586994e-01 
1.840828e-01 
2.103215e-01 
2.373164e-01 
2.649336e-01 
2.930200e-01 
3.215009e-01 
3.503208e-01 
3.794395e-01 
4.088315e-01 
4.384847e-01 
4.683995e-01 
4.985923e-01 
5.290990e-01 
5.599576e-01 
5.911855e-01 
6.227667e-01 
6.552117e-01 
6.887594e-01 
7.230570e-01 
7.578111e-01 
7.928601e-01 
8.280422e-01 
8.638149e-01 
8.990638e-01 
8.635004e-01 
8.268598e-01 
7.899846e-01 
7.532659e-01 
7.170405e-01 
6.815286e-01 
6.468613e-01 
6.130334e-01 
5.798842e-01 
5.471604e-01 
5.146572e-01 
4.822879e-01 
4.500498e-01 
4.179845e-01 
3.861482e-01 
3.545980e-01 
3.233904e-01 
2.925869e-01 
2.622611e-01 
2.324906e-01 
2.033702e-01 
1.750317e-01 
1.476474e-01 
1.214398e-01 
9.669272e-02 
7.376388e-02 
5.309094e-02 
3.518568e-02 
2.061046e-02 
9.934769e-03 
3.679409e-03 
2.482345e-03 
6.657473e-03 
1.602423e-02 
2.994346e-02 
4.760888e-02 
6.808725e-02 
9.069634e-02 
1.149770e-01 
1.405728e-01 
1.671375e-01 
1.944962e-01 
2.224783e-01 
2.509317e-01 
2.797776e-01 
3.089503e-01 
3.383977e-01 
3.680813e-01 
3.979767e-01 
4.280738e-01 
4.583761e-01 
4.889010e-01 
5.196810e-01 
5.507565e-01 
5.821598e-01 
6.138968e-01 
6.461479e-01 
6.794277e-01 
7.135941e-01 
7.483152e-01 
7.834101e-01 
8.186991e-01 
8.547052e-01 
8.919309e-01 
8.559923e-01 
8.189522e-01 
7.818102e-01 
7.450018e-01 
7.088441e-01 
6.735323e-01 
6.391159e-01 
6.054525e-01 
5.722574e-01 
5.392707e-01 
5.063785e-01 
4.735633e-01 
4.408563e-01 
4.083032e-01 
3.759480e-01 
3.438307e-01 
3.119923e-01 
2.804817e-01 
2.493629e-01 
2.187198e-01 
1.886416e-01 
1.592415e-01 
1.306811e-01 
1.031792e-01 
7.702939e-02 
5.261748e-02 
3.043397e-02 
1.107168e-02 
-4.798079e-03 
-1.647704e-02 
-2.331353e-02 
-2.451553e-02 
-1.971120e-02 
-9.168261e-03 
6.340328e-03 
2.571246e-02 
4.784490e-02 
7.200325e-02 
9.769517e-02 
1.245311e-01 
1.522790e-01 
1.806709e-01 
2.095241e-01 
2.387525e-01 
2.682899e-01 
2.980841e-01 
3.280930e-01 
3.582839e-01 
3.886342e-01 
4.191335e-01 
4.497842e-01 
4.806033e-01 
5.116223e-01 
5.428839e-01 
5.744301e-01 
6.062865e-01 
6.384799e-01 
6.715185e-01 
7.055131e-01 
7.401568e-01 
7.752447e-01 
8.105684e-01 
8.467543e-01 
8.858470e-01 
8.495773e-01 
8.122084e-01 
7.749094e-01 
7.381317e-01 
7.021581e-01 
6.671328e-01 
6.329640e-01 
5.993674e-01 
5.660061e-01 
5.327273e-01 
4.994941e-01 
4.663240e-01 
4.332491e-01 
4.002988e-01 
3.674991e-01 
3.348770e-01 
3.024660e-01 
2.703094e-01 
2.384645e-01 
2.070066e-01 
1.760326e-01 
1.456425e-01 
1.159734e-01 
8.722730e-02 
5.969349e-02 
3.377681e-02 
1.001881e-02 
-1.089924e-02 
-2.818049e-02 
-4.097213e-02 
-4.845705e-02 
-4.964211e-02 
-4.406354e-02 
-3.211590e-02 
-1.480783e-02 
6.378210e-03 
3.021524e-02 
5.590130e-02 
8.291752e-02 
1.109732e-01 
1.397551e-01 
1.690135e-01 
1.986414e-01 
2.285604e-01 
2.587122e-01 
2.890532e-01 
3.195498e-01 
3.501771e-01 
3.809181e-01 
4.117648e-01 
4.427189e-01 
4.737946e-01 
5.050199e-01 
5.364360e-01 
5.680899e-01 
6.000211e-01 
6.322580e-01 
6.650604e-01 
6.988165e-01 
7.333361e-01 
7.683546e-01 
8.036719e-01 
8.399783e-01 
8.808337e-01 
8.442785e-01 
8.066548e-01 
7.693100e-01 
7.326717e-01 
6.969912e-01 
6.622867e-01 
6.282967e-01 
5.946381e-01 
5.610744e-01 
5.275451e-01 
4.940558e-01 
4.606259e-01 
4.272702e-01 
3.939999e-01 
3.608293e-01 
3.277805e-01 
2.948847e-01 
2.621822e-01 
2.297228e-01 
1.975702e-01 
1.658081e-01 
1.345435e-01 
1.038878e-01 
7.401244e-02 
4.518783e-02 
1.782370e-02 
-7.497405e-03 
-3.000715e-02 
-4.877087e-02 
-6.275253e-02 
-7.092399e-02 
-7.203157e-02 
-6.550435e-02 
-5.190922e-02 
-3.268481e-02 
-9.695026e-03 
1.574572e-02 
4.284213e-02 
7.113150e-02 
1.002250e-01 
1.298178e-01 
1.597834e-01 
1.900313e-01 
2.204965e-01 
2.511320e-01 
2.819031e-01 
3.127838e-01 
3.437547e-01 
3.748034e-01 
4.059249e-01 
4.371225e-01 
4.684087e-01 
4.998075e-01 
5.313553e-01 
5.630982e-01 
5.950821e-01 
6.273477e-01 
6.600127e-01 
6.935178e-01 
7.278503e-01 
7.627526e-01 
7.979665e-01 
8.343838e-01 
8.769212e-01 
8.401263e-01 
8.023312e-01 
7.650393e-01 
7.286456e-01 
6.933258e-01 
6.589124e-01 
6.249921e-01 
5.912183e-01 
5.574819e-01 
5.237763e-01 
4.901137e-01 
4.564997e-01 