# vtk DataFile Version 2.0 
Quadtree Mesh 
ASCII 
DATASET UNSTRUCTURED_GRID 
POINTS 4096 double 
-1.000000e+00 -1.000000e+00 0.000000e+00
-9.682540e-01 -1.000000e+00 0.000000e+00
-9.365079e-01 -1.000000e+00 0.000000e+00
-9.047619e-01 -1.000000e+00 0.000000e+00
-8.730159e-01 -1.000000e+00 0.000000e+00
-8.412698e-01 -1.000000e+00 0.000000e+00
-8.095238e-01 -1.000000e+00 0.000000e+00
-7.777778e-01 -1.000000e+00 0.000000e+00
-7.460317e-01 -1.000000e+00 0.000000e+00
-7.142857e-01 -1.000000e+00 0.000000e+00
-6.825397e-01 -1.000000e+00 0.000000e+00
-6.507937e-01 -1.000000e+00 0.000000e+00
-6.190476e-01 -1.000000e+00 0.000000e+00
-5.873016e-01 -1.000000e+00 0.000000e+00
-5.555556e-01 -1.000000e+00 0.000000e+00
-5.238095e-01 -1.000000e+00 0.000000e+00
-4.920635e-01 -1.000000e+00 0.000000e+00
-4.603175e-01 -1.000000e+00 0.000000e+00
-4.285714e-01 -1.000000e+00 0.000000e+00
-3.968254e-01 -1.000000e+00 0.000000e+00
-3.650794e-01 -1.000000e+00 0.000000e+00
-3.333333e-01 -1.000000e+00 0.000000e+00
-3.015873e-01 -1.000000e+00 0.000000e+00
-2.698413e-01 -1.000000e+00 0.000000e+00
-2.380952e-01 -1.000000e+00 0.000000e+00
-2.063492e-01 -1.000000e+00 0.000000e+00
-1.746032e-01 -1.000000e+00 0.000000e+00
-1.428571e-01 -1.000000e+00 0.000000e+00
-1.111111e-01 -1.000000e+00 0.000000e+00
-7.936508e-02 -1.000000e+00 0.000000e+00
-4.761905e-02 -1.000000e+00 0.000000e+00
-1.587302e-02 -1.000000e+00 0.000000e+00
1.587302e-02 -1.000000e+00 0.000000e+00
4.761905e-02 -1.000000e+00 0.000000e+00
7.936508e-02 -1.000000e+00 0.000000e+00
1.111111e-01 -1.000000e+00 0.000000e+00
1.428571e-01 -1.000000e+00 0.000000e+00
1.746032e-01 -1.000000e+00 0.000000e+00
2.063492e-01 -1.000000e+00 0.000000e+00
2.380952e-01 -1.000000e+00 0.000000e+00
2.698413e-01 -1.000000e+00 0.000000e+00
3.015873e-01 -1.000000e+00 0.000000e+00
3.333333e-01 -1.000000e+00 0.000000e+00
3.650794e-01 -1.000000e+00 0.000000e+00
3.968254e-01 -1.000000e+00 0.000000e+00
4.285714e-01 -1.000000e+00 0.000000e+00
4.603175e-01 -1.000000e+00 0.000000e+00
4.920635e-01 -1.000000e+00 0.000000e+00
5.238095e-01 -1.000000e+00 0.000000e+00
5.555556e-01 -1.000000e+00 0.000000e+00
5.873016e-01 -1.000000e+00 0.000000e+00
6.190476e-01 -1.000000e+00 0.000000e+00
6.507937e-01 -1.000000e+00 0.000000e+00
6.825397e-01 -1.000000e+00 0.000000e+00
7.142857e-01 -1.000000e+00 0.000000e+00
7.460317e-01 -1.000000e+00 0.000000e+00
7.777778e-01 -1.000000e+00 0.000000e+00
8.095238e-01 -1.000000e+00 0.000000e+00
8.412698e-01 -1.000000e+00 0.000000e+00
8.730159e-01 -1.000000e+00 0.000000e+00
9.047619e-01 -1.000000e+00 0.000000e+00
9.365079e-01 -1.000000e+00 0.000000e+00
9.682540e-01 -1.000000e+00 0.000000e+00
1.000000e+00 -1.000000e+00 0.000000e+00
-1.000000e+00 -9.682540e-01 0.000000e+00
-9.682540e-01 -9.682540e-01 0.000000e+00
-9.365079e-01 -9.682540e-01 0.000000e+00
-9.047619e-01 -9.682540e-01 0.000000e+00
-8.730159e-01 -9.682540e-01 0.000000e+00
-8.412698e-01 -9.682540e-01 0.000000e+00
-8.095238e-01 -9.682540e-01 0.000000e+00
-7.777778e-01 -9.682540e-01 0.000000e+00
-7.460317e-01 -9.682540e-01 0.000000e+00
-7.142857e-01 -9.682540e-01 0.000000e+00
-6.825397e-01 -9.682540e-01 0.000000e+00
-6.507937e-01 -9.682540e-01 0.000000e+00
-6.190476e-01 -9.682540e-01 0.000000e+00
-5.873016e-01 -9.682540e-01 0.000000e+00
-5.555556e-01 -9.682540e-01 0.000000e+00
-5.238095e-01 -9.682540e-01 0.000000e+00
-4.920635e-01 -9.682540e-01 0.000000e+00
-4.603175e-01 -9.682540e-01 0.000000e+00
-4.285714e-01 -9.682540e-01 0.000000e+00
-3.968254e-01 -9.682540e-01 0.000000e+00
-3.650794e-01 -9.682540e-01 0.000000e+00
-3.333333e-01 -9.682540e-01 0.000000e+00
-3.015873e-01 -9.682540e-01 0.000000e+00
-2.698413e-01 -9.682540e-01 0.000000e+00
-2.380952e-01 -9.682540e-01 0.000000e+00
-2.063492e-01 -9.682540e-01 0.000000e+00
-1.746032e-01 -9.682540e-01 0.000000e+00
-1.428571e-01 -9.682540e-01 0.000000e+00
-1.111111e-01 -9.682540e-01 0.000000e+00
-7.936508e-02 -9.682540e-01 0.000000e+00
-4.761905e-02 -9.682540e-01 0.000000e+00
-1.587302e-02 -9.682540e-01 0.000000e+00
1.587302e-02 -9.682540e-01 0.000000e+00
4.761905e-02 -9.682540e-01 0.000000e+00
7.936508e-02 -9.682540e-01 0.000000e+00
1.111111e-01 -9.682540e-01 0.000000e+00
1.428571e-01 -9.682540e-01 0.000000e+00
1.746032e-01 -9.682540e-01 0.000000e+00
2.063492e-01 -9.682540e-01 0.000000e+00
2.380952e-01 -9.682540e-01 0.000000e+00
2.698413e-01 -9.682540e-01 0.000000e+00
3.015873e-01 -9.682540e-01 0.000000e+00
3.333333e-01 -9.682540e-01 0.000000e+00
3.650794e-01 -9.682540e-01 0.000000e+00
3.968254e-01 -9.682540e-01 0.000000e+00
4.285714e-01 -9.682540e-01 0.000000e+00
4.603175e-01 -9.682540e-01 0.000000e+00
4.920635e-01 -9.682540e-01 0.000000e+00
5.238095e-01 -9.682540e-01 0.000000e+00
5.555556e-01 -9.682540e-01 0.000000e+00
5.873016e-01 -9.682540e-01 0.000000e+00
6.190476e-01 -9.682540e-01 0.000000e+00
6.507937e-01 -9.682540e-01 0.000000e+00
6.825397e-01 -9.682540e-01 0.000000e+00
7.142857e-01 -9.682540e-01 0.000000e+00
7.460317e-01 -9.682540e-01 0.000000e+00
7.777778e-01 -9.682540e-01 0.000000e+00
8.095238e-01 -9.682540e-01 0.000000e+00
8.412698e-01 -9.682540e-01 0.000000e+00
8.730159e-01 -9.682540e-01 0.000000e+00
9.047619e-01 -9.682540e-01 0.000000e+00
9.365079e-01 -9.682540e-01 0.000000e+00
9.682540e-01 -9.682540e-01 0.000000e+00
1.000000e+00 -9.682540e-01 0.000000e+00
-1.000000e+00 -9.365079e-01 0.000000e+00
-9.682540e-01 -9.365079e-01 0.000000e+00
-9.365079e-01 -9.365079e-01 0.000000e+00
-9.047619e-01 -9.365079e-01 0.000000e+00
-8.730159e-01 -9.365079e-01 0.000000e+00
-8.412698e-01 -9.365079e-01 0.000000e+00
-8.095238e-01 -9.365079e-01 0.000000e+00
-7.777778e-01 -9.365079e-01 0.000000e+00
-7.460317e-01 -9.365079e-01 0.000000e+00
-7.142857e-01 -9.365079e-01 0.000000e+00
-6.825397e-01 -9.365079e-01 0.000000e+00
-6.507937e-01 -9.365079e-01 0.000000e+00
-6.190476e-01 -9.365079e-01 0.000000e+00
-5.873016e-01 -9.365079e-01 0.000000e+00
-5.555556e-01 -9.365079e-01 0.000000e+00
-5.238095e-01 -9.365079e-01 0.000000e+00
-4.920635e-01 -9.365079e-01 0.000000e+00
-4.603175e-01 -9.365079e-01 0.000000e+00
-4.285714e-01 -9.365079e-01 0.000000e+00
-3.968254e-01 -9.365079e-01 0.000000e+00
-3.650794e-01 -9.365079e-01 0.000000e+00
-3.333333e-01 -9.365079e-01 0.000000e+00
-3.015873e-01 -9.365079e-01 0.000000e+00
-2.698413e-01 -9.365079e-01 0.000000e+00
-2.380952e-01 -9.365079e-01 0.000000e+00
-2.063492e-01 -9.365079e-01 0.000000e+00
-1.746032e-01 -9.365079e-01 0.000000e+00
-1.428571e-01 -9.365079e-01 0.000000e+00
-1.111111e-01 -9.365079e-01 0.000000e+00
-7.936508e-02 -9.365079e-01 0.000000e+00
-4.761905e-02 -9.365079e-01 0.000000e+00
-1.587302e-02 -9.365079e-01 0.000000e+00
1.587302e-02 -9.365079e-01 0.000000e+00
4.761905e-02 -9.365079e-01 0.000000e+00
7.936508e-02 -9.365079e-01 0.000000e+00
1.111111e-01 -9.365079e-01 0.000000e+00
1.428571e-01 -9.365079e-01 0.000000e+00
1.746032e-01 -9.365079e-01 0.000000e+00
2.063492e-01 -9.365079e-01 0.000000e+00
2.380952e-01 -9.365079e-01 0.000000e+00
2.698413e-01 -9.365079e-01 0.000000e+00
3.015873e-01 -9.365079e-01 0.000000e+00
3.333333e-01 -9.365079e-01 0.000000e+00
3.650794e-01 -9.365079e-01 0.000000e+00
3.968254e-01 -9.365079e-01 0.000000e+00
4.285714e-01 -9.365079e-01 0.000000e+00
4.603175e-01 -9.365079e-01 0.000000e+00
4.920635e-01 -9.365079e-01 0.000000e+00
5.238095e-01 -9.365079e-01 0.000000e+00
5.555556e-01 -9.365079e-01 0.000000e+00
5.873016e-01 -9.365079e-01 0.000000e+00
6.190476e-01 -9.365079e-01 0.000000e+00
6.507937e-01 -9.365079e-01 0.000000e+00
6.825397e-01 -9.365079e-01 0.000000e+00
7.142857e-01 -9.365079e-01 0.000000e+00
7.460317e-01 -9.365079e-01 0.000000e+00
7.777778e-01 -9.365079e-01 0.000000e+00
8.095238e-01 -9.365079e-01 0.000000e+00
8.412698e-01 -9.365079e-01 0.000000e+00
8.730159e-01 -9.365079e-01 0.000000e+00
9.047619e-01 -9.365079e-01 0.000000e+00
9.365079e-01 -9.365079e-01 0.000000e+00
9.682540e-01 -9.365079e-01 0.000000e+00
1.000000e+00 -9.365079e-01 0.000000e+00
-1.000000e+00 -9.047619e-01 0.000000e+00
-9.682540e-01 -9.047619e-01 0.000000e+00
-9.365079e-01 -9.047619e-01 0.000000e+00
-9.047619e-01 -9.047619e-01 0.000000e+00
-8.730159e-01 -9.047619e-01 0.000000e+00
-8.412698e-01 -9.047619e-01 0.000000e+00
-8.095238e-01 -9.047619e-01 0.000000e+00
-7.777778e-01 -9.047619e-01 0.000000e+00
-7.460317e-01 -9.047619e-01 0.000000e+00
-7.142857e-01 -9.047619e-01 0.000000e+00
-6.825397e-01 -9.047619e-01 0.000000e+00
-6.507937e-01 -9.047619e-01 0.000000e+00
-6.190476e-01 -9.047619e-01 0.000000e+00
-5.873016e-01 -9.047619e-01 0.000000e+00
-5.555556e-01 -9.047619e-01 0.000000e+00
-5.238095e-01 -9.047619e-01 0.000000e+00
-4.920635e-01 -9.047619e-01 0.000000e+00
-4.603175e-01 -9.047619e-01 0.000000e+00
-4.285714e-01 -9.047619e-01 0.000000e+00
-3.968254e-01 -9.047619e-01 0.000000e+00
-3.650794e-01 -9.047619e-01 0.000000e+00
-3.333333e-01 -9.047619e-01 0.000000e+00
-3.015873e-01 -9.047619e-01 0.000000e+00
-2.698413e-01 -9.047619e-01 0.000000e+00
-2.380952e-01 -9.047619e-01 0.000000e+00
-2.063492e-01 -9.047619e-01 0.000000e+00
-1.746032e-01 -9.047619e-01 0.000000e+00
-1.428571e-01 -9.047619e-01 0.000000e+00
-1.111111e-01 -9.047619e-01 0.000000e+00
-7.936508e-02 -9.047619e-01 0.000000e+00
-4.761905e-02 -9.047619e-01 0.000000e+00
-1.587302e-02 -9.047619e-01 0.000000e+00
1.587302e-02 -9.047619e-01 0.000000e+00
4.761905e-02 -9.047619e-01 0.000000e+00
7.936508e-02 -9.047619e-01 0.000000e+00
1.111111e-01 -9.047619e-01 0.000000e+00
1.428571e-01 -9.047619e-01 0.000000e+00
1.746032e-01 -9.047619e-01 0.000000e+00
2.063492e-01 -9.047619e-01 0.000000e+00
2.380952e-01 -9.047619e-01 0.000000e+00
2.698413e-01 -9.047619e-01 0.000000e+00
3.015873e-01 -9.047619e-01 0.000000e+00
3.333333e-01 -9.047619e-01 0.000000e+00
3.650794e-01 -9.047619e-01 0.000000e+00
3.968254e-01 -9.047619e-01 0.000000e+00
4.285714e-01 -9.047619e-01 0.000000e+00
4.603175e-01 -9.047619e-01 0.000000e+00
4.920635e-01 -9.047619e-01 0.000000e+00
5.238095e-01 -9.047619e-01 0.000000e+00
5.555556e-01 -9.047619e-01 0.000000e+00
5.873016e-01 -9.047619e-01 0.000000e+00
6.190476e-01 -9.047619e-01 0.000000e+00
[...]
POINT_DATA 4096 
SCALARS concentration double 1 
LOOKUP_TABLE default 
1.422921e+00 
1.401335e+00 
1.379612e+00 
1.357783e+00 
1.335888e+00 
1.313977e+00 
1.292112e+00 
1.270363e+00 
1.248802e+00 
1.227497e+00 
1.206507e+00 
1.185876e+00 
1.165640e+00 
1.145831e+00 
1.126476e+00 
1.107600e+00 
1.089226e+00 
1.071377e+00 
1.054077e+00 
1.037350e+00 
1.021220e+00 
1.005712e+00 
9.908524e-01 
9.766678e-01 
9.631842e-01 
9.504276e-01 
9.384237e-01 
9.271976e-01 
9.167737e-01 
9.071759e-01 
8.984275e-01 
8.905504e-01 
8.835631e-01 
8.774717e-01 
8.722783e-01 
8.679833e-01 
8.645876e-01 
8.620947e-01 
8.605103e-01 
8.598400e-01 
8.600880e-01 
8.612549e-01 
8.633374e-01 
8.663284e-01 
8.702175e-01 
8.749917e-01 
8.806356e-01 
8.871318e-01 
8.944612e-01 
9.026034e-01 
9.115368e-01 
9.212390e-01 
9.316868e-01 
9.428566e-01 
9.547249e-01 
9.672682e-01 
9.804630e-01 
9.942866e-01 
1.008717e+00 
1.023731e+00 
1.039310e+00 
1.055432e+00 
1.072077e+00 
1.089228e+00 
1.403429e+00 
1.381403e+00 
1.359190e+00 
1.336890e+00 
1.314541e+00 
1.292190e+00 
1.269900e+00 
1.247740e+00 
1.225781e+00 
1.204088e+00 
1.182717e+00 
1.161705e+00 
1.141086e+00 
1.120894e+00 
1.101153e+00 
1.081891e+00 
1.063131e+00 
1.044895e+00 
1.027207e+00 
1.010090e+00 
9.935689e-01 
9.776712e-01 
9.624233e-01 
9.478531e-01 
9.339879e-01 
9.208552e-01 
9.084815e-01 
8.968928e-01 
8.861138e-01 
8.761687e-01 
8.670811e-01 
8.588738e-01 
8.517565e-01 
8.455879e-01 
8.403688e-01 
8.360947e-01 
8.327590e-01 
8.303570e-01 
8.288875e-01 
8.283524e-01 
8.287549e-01 
8.300967e-01 
8.323769e-01 
8.355905e-01 
8.397287e-01 
8.447794e-01 
8.507272e-01 
8.575544e-01 
8.652411e-01 
8.737654e-01 
8.831043e-01 
8.932334e-01 
9.041275e-01 
9.157611e-01 
9.281081e-01 
9.411427e-01 
9.548392e-01 
9.691725e-01 
9.841178e-01 
9.996511e-01 
1.015749e+00 
1.032390e+00 
1.049552e+00 
1.067215e+00 
1.384282e+00 
1.361811e+00 
1.339143e+00 
1.316395e+00 
1.293603e+00 
1.270817e+00 
1.248101e+00 
1.225526e+00 
1.203161e+00 
1.181070e+00 
1.159303e+00 
1.137894e+00 
1.116882e+00 
1.096298e+00 
1.076171e+00 
1.056524e+00 
1.037379e+00 
1.018758e+00 
1.000683e+00 
9.831800e-01 
9.662754e-01 
9.499967e-01 
9.343727e-01 
9.194325e-01 
9.052056e-01 
8.917212e-01 
8.790079e-01 
8.670939e-01 
8.560062e-01 
8.457711e-01 
8.364136e-01 
8.279575e-01 
8.204323e-01 
8.138749e-01 
8.083155e-01 
8.037758e-01 
8.002666e-01 
7.977876e-01 
7.963297e-01 
7.958795e-01 
7.964236e-01 
7.979508e-01 
8.004519e-01 
8.039182e-01 
8.083396e-01 
8.137032e-01 
8.199928e-01 
8.271893e-01 
8.352713e-01 
8.442151e-01 
8.539957e-01 
8.645869e-01 
8.759612e-01 
8.880910e-01 
9.009479e-01 
9.145038e-01 
9.287308e-01 
9.436012e-01 
9.590882e-01 
9.751657e-01 
9.918083e-01 
1.008992e+00 
1.026693e+00 
1.044913e+00 
1.365489e+00 
1.342569e+00 
1.319440e+00 
1.296231e+00 
1.272982e+00 
1.249748e+00 
1.226598e+00 
1.203605e+00 
1.180838e+00 
1.158356e+00 
1.136201e+00 
1.114408e+00 
1.093011e+00 
1.072040e+00 
1.051522e+00 
1.031480e+00 
1.011938e+00 
9.929173e-01 
9.744418e-01 
9.565386e-01 
9.392353e-01 
9.225608e-01 
9.065450e-01 
8.912186e-01 
8.766127e-01 
8.627586e-01 
8.496873e-01 
8.374292e-01 
8.260139e-01 
8.154701e-01 
8.058251e-01 
7.971048e-01 
7.893391e-01 
7.825585e-01 
7.767867e-01 
7.720445e-01 
7.683498e-01 
7.657157e-01 
7.641482e-01 
7.636454e-01 
7.641988e-01 
7.657963e-01 
7.684241e-01 
7.720683e-01 
7.767141e-01 
7.823448e-01 
7.889412e-01 
7.964813e-01 
8.049404e-01 
8.142922e-01 
8.245084e-01 
8.355598e-01 
8.474162e-01 
8.600471e-01 
8.734213e-01 
8.875079e-01 
9.022764e-01 
9.176966e-01 
9.337390e-01 
9.503752e-01 
9.675778e-01 
9.853204e-01 
1.003578e+00 
1.022354e+00 
1.347059e+00 
1.323688e+00 
1.300093e+00 
1.276419e+00 
1.252709e+00 
1.229028e+00 
1.205448e+00 
1.182044e+00 
1.158880e+00 
1.136011e+00 
1.113470e+00 
1.091294e+00 
1.069512e+00 
1.048151e+00 
1.027234e+00 
1.006786e+00 
9.868300e-01 
9.673934e-01 
9.485028e-01 
9.301855e-01 
9.124698e-01 
8.953851e-01 
8.789624e-01 
8.632338e-01 
8.482320e-01 
8.339904e-01 
8.205419e-01 
8.079196e-01 
7.961559e-01 
7.852825e-01 
7.753298e-01 
7.663265e-01 
7.583052e-01 
7.512985e-01 
7.453301e-01 
7.404192e-01 
7.365819e-01 
7.338309e-01 
7.321746e-01 
7.316163e-01 
7.321538e-01 
7.337802e-01 
7.364850e-01 
7.402550e-01 
7.450745e-01 
7.509253e-01 
7.577859e-01 
7.656320e-01 
7.744361e-01 
7.841687e-01 
7.947986e-01 
8.062932e-01 
8.186191e-01 
8.317423e-01 
8.456285e-01 
8.602438e-01 
8.755545e-01 
8.915274e-01 
9.081304e-01 
9.253325e-01 
9.431036e-01 
9.614152e-01 
9.802398e-01 
9.995753e-01 
1.329006e+00 
1.305182e+00 
1.281117e+00 
1.256972e+00 
1.232799e+00 
1.208667e+00 
1.184651e+00 
1.160827e+00 
1.137257e+00 
1.113986e+00 
1.091050e+00 
1.068482e+00 
1.046310e+00 
1.024558e+00 
1.003247e+00 
9.823965e-01 
9.620313e-01 
9.421787e-01 
9.228675e-01 
9.041271e-01 
8.859878e-01 
8.684809e-01 
8.516388e-01 
8.354948e-01 
8.200830e-01 
8.054384e-01 
7.915960e-01 
7.785911e-01 
7.664586e-01 
7.552334e-01 
7.449496e-01 
7.356397e-01 
7.273410e-01 
7.200896e-01 
7.139112e-01 
7.088258e-01 
7.048492e-01 
7.019931e-01 
7.002652e-01 
6.996690e-01 
7.002036e-01 
7.018642e-01 
7.046428e-01 
7.085281e-01 
7.135053e-01 
7.195562e-01 
7.266587e-01 
7.347868e-01 
7.439116e-01 
7.540015e-01 
7.650226e-01 
7.769396e-01 
7.897162e-01 
8.033153e-01 
8.176997e-01 
8.328321e-01 
8.486758e-01 
8.651947e-01 
8.823539e-01 
9.001195e-01 
9.184589e-01 
9.373410e-01 
9.567362e-01 
9.766330e-01 
1.311348e+00 
1.287071e+00 
1.262535e+00 
1.237918e+00 
1.213281e+00 
1.188696e+00 
1.164244e+00 
1.139997e+00 
1.116014e+00 
1.092333e+00 
1.068990e+00 
1.046017e+00 
1.023439e+00 
1.001279e+00 
9.795577e-01 
9.582966e-01 
9.375186e-01 
9.172472e-01 
8.975118e-01 
8.783443e-01 
8.597759e-01 
8.418395e-01 
8.245690e-01 
8.079994e-01 
7.921669e-01 
7.771085e-01 
7.628610e-01 
7.494614e-01 
7.369467e-01 
7.253538e-01 
7.147194e-01 
7.050793e-01 
6.964760e-01 
6.889528e-01 
6.825406e-01 
6.772624e-01 
6.731350e-01 
6.701695e-01 
6.683722e-01 
6.677453e-01 
6.682875e-01 
6.699944e-01 
6.728584e-01 
6.768686e-01 
6.820104e-01 
6.882652e-01 
6.956097e-01 
7.040171e-01 
7.134568e-01 
7.238953e-01 
7.352969e-01 
7.476241e-01 
7.608381e-01 
7.748992e-01 
7.897676e-01 
8.054033e-01 
8.217669e-01 
8.388196e-01 
8.565239e-01 
8.748432e-01 
8.937425e-01 
9.131885e-01 
9.331494e-01 
9.536037e-01 
1.294106e+00 
1.269379e+00 
1.244372e+00 
1.219288e+00 
1.194190e+00 
1.169159e+00 
1.144277e+00 
1.119613e+00 
1.095217e+00 
1.071126e+00 
1.047373e+00 
1.023986e+00 
1.000988e+00 
9.783996e-01 
9.562427e-01 
9.345413e-01 
9.133217e-01 
8.926116e-01 
8.724393e-01 
8.528336e-01 
8.338254e-01 
8.154488e-01 
7.977398e-01 
7.807329e-01 
7.644669e-01 
7.489821e-01 
7.343184e-01 
7.205155e-01 
7.076126e-01 
6.956488e-01 
6.846616e-01 
6.746871e-01 
6.657676e-01 
6.579496e-01 
6.512716e-01 
6.457658e-01 
6.414572e-01 
6.383610e-01 
6.364838e-01 
6.358250e-01 
6.363803e-01 
6.381431e-01 
6.411047e-01 
6.452537e-01 
6.505749e-01 
6.570481e-01 
6.646486e-01 
6.733473e-01 
6.831117e-01 
6.939060e-01 
7.056924e-01 
7.184310e-01 
7.320807e-01 
7.465995e-01 
7.619452e-01 
7.780755e-01 
7.949487e-01 
8.125238e-01 
8.307609e-01 
8.496216e-01 
8.690687e-01 
8.890667e-01 
9.095821e-01 
9.305850e-01 
1.277168e+00 
1.251982e+00 
1.226501e+00 
1.200944e+00 
1.175385e+00 
1.149911e+00 
1.124603e+00 
1.099525e+00 
1.074719e+00 
1.050220e+00 
1.026057e+00 
1.002252e+00 
9.788252e-01 
9.557975e-01 
9.331912e-01 
9.110316e-01 
8.893460e-01 
8.681631e-01 
8.475130e-01 
8.274256e-01 
8.079326e-01 
7.890708e-01 
7.708797e-01 
7.533987e-01 
7.366669e-01 
7.207246e-01 
7.056136e-01 
6.913771e-01 
6.780593e-01 
6.657040e-01 
6.543546e-01 
6.440526e-01 
6.348423e-01 
6.267641e-01 
6.198500e-01 
6.141283e-01 
6.096256e-01 
6.063645e-01 
6.043618e-01 
6.036260e-01 
6.041577e-01 
6.059515e-01 
6.089973e-01 
6.132811e-01 
6.187842e-01 
6.254837e-01 
6.333514e-01 
6.423552e-01 
6.524590e-01 
6.636240e-01 
6.758091e-01 
6.889714e-01 
7.030670e-01 
7.180512e-01 
7.338793e-01 
7.505068e-01 
7.678897e-01 
7.859851e-01 
8.047514e-01 
8.241482e-01 
8.441369e-01 
8.646805e-01 
8.857429e-01 
9.072911e-01 
1.260799e+00 
1.235170e+00 
1.209222e+00 
1.183207e+00 
1.157205e+00 
1.131306e+00 
1.105588e+00 
1.080109e+00 
1.054903e+00 
1.030003e+00 
1.005433e+00 
9.812123e-01 
9.573591e-01 
9.338938e-01 
9.108390e-01 
8.882199e-01 
8.660642e-01 
8.444015e-01 
8.232634e-01 
8.026839e-01 
7.826993e-01 
7.633479e-01 
7.446687e-01 
7.267002e-01 
7.094802e-01 
6.930524e-01 
6.774628e-01 
6.627584e-01 
6.489869e-01 
6.361965e-01 
6.244349e-01 
6.137488e-01 
6.041905e-01 
5.958110e-01 
5.886476e-01 
5.827289e-01 
5.780769e-01 
5.747084e-01 
5.726361e-01 
5.718686e-01 
5.724098e-01 
5.742583e-01 
5.774067e-01 
5.818417e-01 
5.875435e-01 
5.944866e-01 
6.026400e-01 
6.119678e-01 
6.224306e-01 
6.339855e-01 
6.465876e-01 
6.601904e-01 
6.747464e-01 
6.902077e-01 
7.065266e-01 
7.236559e-01 
7.415495e-01 
7.601622e-01 
7.794508e-01 
7.993732e-01 
8.198896e-01 
8.409617e-01 
8.625523e-01 
8.846240e-01 
1.244888e+00 
1.218822e+00 
1.192414e+00 
1.165947e+00 
1.139510e+00 
1.113193e+00 
1.087073e+00 
1.061194e+00 
1.035590e+00 
1.010287e+00 
9.853030e-01 
9.606562e-01 
9.363648e-01 
9.124506e-01 
8.889378e-01 
8.658528e-01 
8.432234e-01 
8.210790e-01 
7.994512e-01 
7.783735e-01 
7.578819e-01 
7.380152e-01 
7.188145e-01 
7.003232e-01 
6.825847e-01 
6.656461e-01 
6.495555e-01 
6.343616e-01 
6.201149e-01 
6.068670e-01 
5.946698e-01 
5.835748e-01 
5.736399e-01 
5.649228e-01 
5.574674e-01 
5.513081e-01 
5.464711e-01 
5.429746e-01 
5.408298e-01 
5.400429e-01 
5.406157e-01 
5.425459e-01 
5.458257e-01 
5.504410e-01 
5.563704e-01 
5.635859e-01 
5.720533e-01 
5.817332e-01 
5.925821e-01 
6.045531e-01 
6.175972e-01 
6.316639e-01 
6.467016e-01 
6.626589e-01 
6.794849e-01 
6.971294e-01 
7.155436e-01 
7.346806e-01 
7.544949e-01 
7.749433e-01 
7.959845e-01 
8.175793e-01 
8.396896e-01 
8.622754e-01 
1.229452e+00 
1.202954e+00 
1.176090e+00 
1.149176e+00 
1.122310e+00 
1.095587e+00 
1.069072e+00 
1.042804e+00 
1.016813e+00 
9.911164e-01 
9.657254e-01 
9.406548e-01 
9.159232e-01 
8.915529e-01 
8.675691e-01 
8.439993e-01 
8.208728e-01 
7.982207e-01 
7.760761e-01 
7.544744e-01 
7.334534e-01 
7.130534e-01 
6.933170e-01 
6.742893e-01 
6.560173e-01 
6.385500e-01 
6.219362e-01 
6.062263e-01 
5.914754e-01 
5.777403e-01 
5.650779e-01 
5.535448e-01 
5.432054e-01 
5.341237e-01 
5.263492e-01 
5.199218e-01 
5.148720e-01 
5.112214e-01 
5.089837e-01 
5.081660e-01 
5.087700e-01 
5.107920e-01 
5.142224e-01 
5.190439e-01 
5.252319e-01 
5.327542e-01 
5.415719e-01 
5.516410e-01 
5.629130e-01 
5.753363e-01 
5.888569e-01 
6.034196e-01 
6.189687e-01 
6.354487e-01 
6.528052e-01 
6.709848e-01 
6.899363e-01 
7.096103e-01 
7.299596e-01 
7.509394e-01 
7.725075e-01 
7.946236e-01 
8.172489e-01 
8.403423e-01 
1.214507e+00 
1.187586e+00 
1.160267e+00 
1.132910e+00 
1.105623e+00 
1.078497e+00 
1.051590e+00 
1.024942e+00 
9.985715e-01 
9.724877e-01 
9.466968e-01 
9.212114e-01 
8.960498e-01 
8.712346e-01 
8.467905e-01 
8.227445e-01 
7.991253e-01 
7.759644e-01 
7.532954e-01 
7.311549e-01 
7.095824e-01 
6.886204e-01 
6.683144e-01 
6.487124e-01 
6.298648e-01 
6.118241e-01 
5.946451e-01 
5.783833e-01 
5.630947e-01 
5.488395e-01 
5.356794e-01 
5.236764e-01 
5.129014e-01 
5.034257e-01 
4.953052e-01 
4.885849e-01 
4.832998e-01 
4.794752e-01 
4.771278e-01 
4.762671e-01 
4.768964e-01 
4.790122e-01 
4.826032e-01 
4.876490e-01 
4.941205e-01 
5.019802e-01 
5.111835e-01 
5.216801e-01 
5.334153e-01 
5.463314e-01 
5.603683e-01 
5.754655e-01 
5.915621e-01 
6.085981e-01 
6.265150e-01 
6.452563e-01 
6.647677e-01 
6.849975e-01 
7.058967e-01 
7.274192e-01 
7.495212e-01 
7.721613e-01 
7.952992e-01 
8.188981e-01 
1.200071e+00 
1.172736e+00 
1.144968e+00 
1.117174e+00 
1.089469e+00 
1.061943e+00 
1.034649e+00 
1.007623e+00 
9.808736e-01 
9.544000e-01 
9.282045e-01 
9.022992e-01 
8.767032e-01 
8.514388e-01 
8.265307e-01 
8.020053e-01 
7.778913e-01 
7.542201e-01 
7.310255e-01 
7.083443e-01 
6.862165e-01 
6.646854e-01 
6.437979e-01 
6.236044e-01 
6.041582e-01 
5.855158e-01 
5.677361e-01 
5.508811e-01 
5.350147e-01 
5.202004e-01 
5.065037e-01 
4.939926e-01 
4.827458e-01 
4.728426e-01 
4.643456e-01 
4.573056e-01 
4.517624e-01 
4.477452e-01 
4.452741e-01 
4.443618e-01 
4.450136e-01 
4.472267e-01 
4.509884e-01 
4.562751e-01 
4.630531e-01 
4.712787e-01 
4.809006e-01 
4.918615e-01 
5.040992e-01 
5.175485e-01 
5.321426e-01 
5.478142e-01 
5.644967e-01 
5.821247e-01 
6.006354e-01 
6.199683e-01 
6.400661e-01 
6.608746e-01 
6.823429e-01 
7.044212e-01 
7.270635e-01 
7.502299e-01 
7.738797e-01 
7.979945e-01 
1.186165e+00 
1.158427e+00 
1.130217e+00 
1.101994e+00 
1.073881e+00 
1.045961e+00 
1.018289e+00 
9.908912e-01 
9.637634e-01 
9.368954e-01 
9.102885e-01 
8.839568e-01 
8.579214e-01 
8.322055e-01 
8.068333e-01 
7.818302e-01 
7.572239e-01 
7.330447e-01 
7.093258e-01 
6.861034e-01 
6.634176e-01 
6.413121e-01 
6.198347e-01 
5.990369e-01 
5.789744e-01 
5.597064e-01 
5.412953e-01 
5.238076e-01 
5.073138e-01 
4.918871e-01 
4.776022e-01 
4.645329e-01 
4.527671e-01 
4.423941e-01 
4.334837e-01 
4.260924e-01 
4.202652e-01 
4.160352e-01 
4.134268e-01 
4.124558e-01 
4.131303e-01 
4.154479e-01 
4.193944e-01 
4.249426e-01 
4.320531e-01 
4.406755e-01 
4.507511e-01 
4.622140e-01 
4.749938e-01 
4.890170e-01 
5.042088e-01 
5.204945e-01 
5.378009e-01 
5.560569e-01 
5.751946e-01 
5.951495e-01 
6.158610e-01 
6.372715e-01 
6.593237e-01 
6.819688e-01 
7.051619e-01 
7.288624e-01 
7.530283e-01 
7.776723e-01 
1.172800e+00 
1.144672e+00 
1.116030e+00 
1.087391e+00 
1.058883e+00 
1.030587e+00 
1.002556e+00 
9.748015e-01 
9.473022e-01 
9.200409e-01 
8.930190e-01 
8.662535e-01 
8.397672e-01 
8.135842e-01 
7.877291e-01 
7.622280e-01 
7.371094e-01 
7.124040e-01 
6.881453e-01 
6.643699e-01 
6.411177e-01 
6.184326e-01 
5.963622e-01 
5.749578e-01 
5.542762e-01 
5.343789e-01 
5.153308e-01 
4.972003e-01 
4.800616e-01 
4.639942e-01 
4.490802e-01 
4.354003e-01 
4.230511e-01 
4.121397e-01 
4.027533e-01 
3.949608e-01 
3.888131e-01 
3.843462e-01 
3.815858e-01 
3.805503e-01 
3.812497e-01 
3.836825e-01 
3.878323e-01 
3.936677e-01 
4.011424e-01 
4.101984e-01 
4.207676e-01 
4.327748e-01 
4.461398e-01 
4.607797e-01 
4.766109e-01 
4.935507e-01 
5.115185e-01 
5.304374e-01 
5.502341e-01 
5.708395e-01 
5.921866e-01 
6.142147e-01 
6.368681e-01 
6.600969e-01 
6.838555e-01 
7.081022e-01 
7.327934e-01 
7.579693e-01 
1.159916e+00 
1.131407e+00 
1.102328e+00 
1.073279e+00 
1.044387e+00 
1.015735e+00 
9.873658e-01 
9.592662e-01 
9.314007e-01 
9.037483e-01 
8.763136e-01 
8.491157e-01 
8.221776e-01 
7.955221e-01 
7.691733e-01 
7.431570e-01 
7.175019e-01 
6.922395e-01 
6.674041e-01 
6.430334e-01 
6.191687e-01 
5.958554e-01 
5.731435e-01 
5.510875e-01 
5.297467e-01 
5.091846e-01 
4.894687e-01 
4.706679e-01 
4.528596e-01 
4.361327e-01 
4.205797e-01 
4.062934e-01 
3.933758e-01 
3.819274e-01 
3.720368e-01 
3.637847e-01 
3.572408e-01 
3.524601e-01 
3.494832e-01 
3.483370e-01 
3.490342e-01 
3.515720e-01 
3.559298e-01 
3.620694e-01 
3.699360e-01 
3.794613e-01 
3.905660e-01 
4.031631e-01 
4.171609e-01 
4.324652e-01 
4.489824e-01 
4.666206e-01 
4.852918e-01 
5.049121e-01 
5.254016e-01 
5.466847e-01 
5.686918e-01 
5.913608e-01 
6.146360e-01 
6.384671e-01 
6.628080e-01 
6.876156e-01 
7.128470e-01 
7.385629e-01 
1.147722e+00 
1.118853e+00 
1.089360e+00 
1.059920e+00 
1.030665e+00 
1.001681e+00 
9.729907e-01 
9.445568e-01 
9.163316e-01 
8.882961e-01 
8.604599e-01 
8.328443e-01 
8.054715e-01 
7.783626e-01 
7.515395e-01 
7.250267e-01 
6.988515e-01 
6.730440e-01 
6.476380e-01 
6.226709e-01 
5.981840e-01 
5.742235e-01 
5.508405e-01 
5.280916e-01 
5.060391e-01 
4.847508e-01 
4.643004e-01 
4.447679e-01 
4.262393e-01 
4.088051e-01 
3.925596e-01 
3.776010e-01 
3.640475e-01 
3.520223e-01 
3.416254e-01 
3.329408e-01 
3.260394e-01 
3.209816e-01 
3.178179e-01 
3.165857e-01 
3.173054e-01 
3.199763e-01 
3.245755e-01 
3.310581e-01 
3.393601e-01 
3.494013e-01 
3.610897e-01 
3.743248e-01 
3.890016e-01 
4.050140e-01 
4.222568e-01 
4.406276e-01 
4.600289e-01 
4.803708e-01 
5.015675e-01 
5.235396e-01 
5.462151e-01 
5.695309e-01 
5.934312e-01 
6.178660e-01 
6.427894e-01 
6.681563e-01 
6.939256e-01 
7.202008e-01 
1.136136e+00 
1.106924e+00 
1.077025e+00 
1.047210e+00 
1.017617e+00 
9.883303e-01 
9.593369e-01 
9.305740e-01 
9.019896e-01 
8.735711e-01 
8.453342e-01 
8.173017e-01 
7.894946e-01 
7.619330e-01 
7.346383e-01 
7.076340e-01 
6.809464e-01 
6.546045e-01 
6.286407e-01 
6.030910e-01 
5.779957e-01 
5.533998e-01 
5.293539e-01 
5.059148e-01 
4.831456e-01 
4.611161e-01 
4.399034e-01 
4.195918e-01 
4.002730e-01 
3.820463e-01 
3.650177e-01 
3.492987e-01 
3.350233e-01 
3.223315e-01 
3.113389e-01 
3.021426e-01 
2.948249e-01 
2.894554e-01 
2.860930e-01 
2.847822e-01 
2.855475e-01 
2.883884e-01 
2.932771e-01 
3.001601e-01 
3.089611e-01 
3.195856e-01 
3.319261e-01 
3.458661e-01 
3.612857e-01 
3.780646e-01 
3.960840e-01 
4.152224e-01 
4.353808e-01 
4.564670e-01 
4.783920e-01 
5.010724e-01 
5.244336e-01 
5.484109e-01 
5.729482e-01 
5.979955e-01 
6.235075e-01 
6.494373e-01 
6.757468e-01 
7.025954e-01 
1.125178e+00 
1.095639e+00 
1.065343e+00 
1.035165e+00 
1.005262e+00 
9.756999e-01 
9.464165e-01 
9.173311e-01 
8.883963e-01 
8.596076e-01 
8.309838e-01 
8.025460e-01 
7.743127e-01 
7.463024e-01 
7.185353e-01 
6.910342e-01 
6.638249e-01 
6.369359e-01 
6.103990e-01 
5.842497e-01 
5.585279e-01 
5.332781e-01 
5.085505e-01 
4.844019e-01 
4.608958e-01 
4.381036e-01 
4.161047e-01 
3.949868e-01 
3.748472e-01 
3.557922e-01 
3.379371e-01 
3.214051e-01 
3.063464e-01 
2.929197e-01 
2.812578e-01 
2.714753e-01 
2.636713e-01 
2.579324e-01 
2.543322e-01 
2.529261e-01 
2.537434e-01 
2.567820e-01 
2.620069e-01 
2.693520e-01 
2.787244e-01 
2.900109e-01 
3.030838e-01 
3.178073e-01 
3.340432e-01 
3.516541e-01 
3.704940e-01 
3.904423e-01 
4.113932e-01 
4.332514e-01 
4.559266e-01 
4.793333e-01 
5.033949e-01 
5.280452e-01 
5.532278e-01 
5.788930e-01 
6.049948e-01 
6.314878e-01 
6.583362e-01 
6.857661e-01 
1.114865e+00 
1.085016e+00 
1.054333e+00 
1.023810e+00 
9.936302e-01 
9.638202e-01 
9.342537e-01 
9.048520e-01 
8.755792e-01 
8.464380e-01 
8.174471e-01 
7.886244e-01 
7.599856e-01 
7.315470e-01 
7.033275e-01 
6.753482e-01 
6.476332e-01 
6.202096e-01 
5.931077e-01 
5.663620e-01 
5.400111e-01 
5.140988e-01 
4.886747e-01 
4.637953e-01 
4.395244e-01 
4.159346e-01 
3.931075e-01 
3.711346e-01 
3.501183e-01 
3.301722e-01 
3.114214e-01 
2.940019e-01 
2.780816e-01 
2.638402e-01 
2.514298e-01 
2.409837e-01 
2.326216e-01 
2.264522e-01 
2.225697e-01 
2.210447e-01 
2.219144e-01 
2.251756e-01 
2.307837e-01 
2.386562e-01 
2.486789e-01 
2.607139e-01 
2.746080e-01 
2.902013e-01 
3.073321e-01 
3.258296e-01 
3.455461e-01 
3.663529e-01 
3.881374e-01 
4.107996e-01 
4.342483e-01 
4.583980e-01 
4.831717e-01 
5.085028e-01 
5.343345e-01 
5.606177e-01 
5.873053e-01 
6.143562e-01 
6.417361e-01 
6.697652e-01 
1.105219e+00 
1.075073e+00 
1.044011e+00 
1.013168e+00 
9.827461e-01 
9.526958e-01 
9.228485e-01 
8.931379e-01 
8.635394e-01 
8.340595e-01 
8.047144e-01 
7.755186e-01 
7.464856e-01 
7.176303e-01 
6.889703e-01 
6.605252e-01 
6.323174e-01 
6.043718e-01 
5.767170e-01 
5.493853e-01 
5.224133e-01 
4.958431e-01 
4.697227e-01 
4.441071e-01 
4.190596e-01 
3.946529e-01 
3.709700e-01 
3.481051e-01 
3.261652e-01 
3.052708e-01 
2.855569e-01 
2.671728e-01 
2.503051e-01 
2.351590e-01 
2.219081e-01 
2.107089e-01 
2.017069e-01 
1.950386e-01 
1.908246e-01 
1.891562e-01 
1.900811e-01 
1.935953e-01 
1.996424e-01 
2.081187e-01 
2.188817e-01 
2.317620e-01 
2.465747e-01 
2.631268e-01 
2.812148e-01 
3.006626e-01 
3.213143e-01 
3.430317e-01 
3.656941e-01 
3.891963e-01 
4.134454e-01 
4.383570e-01 
4.638552e-01 
4.898740e-01 
5.163569e-01 
5.432548e-01 
5.705220e-01 
5.981217e-01 
6.260215e-01 
6.546580e-01 
1.096258e+00 
1.065824e+00 
1.034398e+00 
1.003265e+00 
9.726353e-01 
9.423474e-01 
9.122264e-01 
8.822191e-01 
8.523100e-01 
8.225070e-01 
7.928241e-01 
7.632731e-01 
7.338660e-01 
7.046160e-01 
6.755384e-01 