# vtk DataFile Version 2.0 
Quadtree Mesh 
ASCII 
DATASET UNSTRUCTURED_GRID 
POINTS 4096 double 
-1.000000e+00 -1.000000e+00 0.000000e+00
-9.682540e-01 -1.000000e+00 0.000000e+00
-9.365079e-01 -1.000000e+00 0.000000e+00
-9.047619e-01 -1.000000e+00 0.000000e+00
-8.730159e-01 -1.000000e+00 0.000000e+00
-8.412698e-01 -1.000000e+00 0.000000e+00
-8.095238e-01 -1.000000e+00 0.000000e+00
-7.777778e-01 -1.000000e+00 0.000000e+00
-7.460317e-01 -1.000000e+00 0.000000e+00
-7.142857e-01 -1.000000e+00 0.000000e+00
-6.825397e-01 -1.000000e+00 0.000000e+00
-6.507937e-01 -1.000000e+00 0.000000e+00
-6.190476e-01 -1.000000e+00 0.000000e+00
-5.873016e-01 -1.000000e+00 0.000000e+00
-5.555556e-01 -1.000000e+00 0.000000e+00
-5.238095e-01 -1.000000e+00 0.000000e+00
-4.920635e-01 -1.000000e+00 0.000000e+00
-4.603175e-01 -1.000000e+00 0.000000e+00
-4.285714e-01 -1.000000e+00 0.000000e+00
-3.968254e-01 -1.000000e+00 0.000000e+00
-3.650794e-01 -1.000000e+00 0.000000e+00
-3.333333e-01 -1.000000e+00 0.000000e+00
-3.015873e-01 -1.000000e+00 0.000000e+00
-2.698413e-01 -1.000000e+00 0.000000e+00
-2.380952e-01 -1.000000e+00 0.000000e+00
-2.063492e-01 -1.000000e+00 0.000000e+00
-1.746032e-01 -1.000000e+00 0.000000e+00
-1.428571e-01 -1.000000e+00 0.000000e+00
-1.111111e-01 -1.000000e+00 0.000000e+00
-7.936508e-02 -1.000000e+00 0.000000e+00
-4.761905e-02 -1.000000e+00 0.000000e+00
-1.587302e-02 -1.000000e+00 0.000000e+00
1.587302e-02 -1.000000e+00 0.000000e+00
4.761905e-02 -1.000000e+00 0.000000e+00
7.936508e-02 -1.000000e+00 0.000000e+00
1.111111e-01 -1.000000e+00 0.000000e+00
1.428571e-01 -1.000000e+00 0.000000e+00
1.746032e-01 -1.000000e+00 0.000000e+00
2.063492e-01 -1.000000e+00 0.000000e+00
2.380952e-01 -1.000000e+00 0.000000e+00
2.698413e-01 -1.000000e+00 0.000000e+00
3.015873e-01 -1.000000e+00 0.000000e+00
3.333333e-01 -1.000000e+00 0.000000e+00
3.650794e-01 -1.000000e+00 0.000000e+00
3.968254e-01 -1.000000e+00 0.000000e+00
4.285714e-01 -1.000000e+00 0.000000e+00
4.603175e-01 -1.000000e+00 0.000000e+00
4.920635e-01 -1.000000e+00 0.000000e+00
5.238095e-01 -1.000000e+00 0.000000e+00
5.555556e-01 -1.000000e+00 0.000000e+00
5.873016e-01 -1.000000e+00 0.000000e+00
6.190476e-01 -1.000000e+00 0.000000e+00
6.507937e-01 -1.000000e+00 0.000000e+00
6.825397e-01 -1.000000e+00 0.000000e+00
7.142857e-01 -1.000000e+00 0.000000e+00
7.460317e-01 -1.000000e+00 0.000000e+00
7.777778e-01 -1.000000e+00 0.000000e+00
8.095238e-01 -1.000000e+00 0.000000e+00
8.412698e-01 -1.000000e+00 0.000000e+00
8.730159e-01 -1.000000e+00 0.000000e+00
9.047619e-01 -1.000000e+00 0.000000e+00
9.365079e-01 -1.000000e+00 0.000000e+00
9.682540e-01 -1.000000e+00 0.000000e+00
1.000000e+00 -1.000000e+00 0.000000e+00
-1.000000e+00 -9.682540e-01 0.000000e+00
-9.682540e-01 -9.682540e-01 0.000000e+00
-9.365079e-01 -9.682540e-01 0.000000e+00
-9.047619e-01 -9.682540e-01 0.000000e+00
-8.730159e-01 -9.682540e-01 0.000000e+00
-8.412698e-01 -9.682540e-01 0.000000e+00
-8.095238e-01 -9.682540e-01 0.000000e+00
-7.777778e-01 -9.682540e-01 0.000000e+00
-7.460317e-01 -9.682540e-01 0.000000e+00
-7.142857e-01 -9.682540e-01 0.000000e+00
-6.825397e-01 -9.682540e-01 0.000000e+00
-6.507937e-01 -9.682540e-01 0.000000e+00
-6.190476e-01 -9.682540e-01 0.000000e+00
-5.873016e-01 -9.682540e-01 0.000000e+00
-5.555556e-01 -9.682540e-01 0.000000e+00
-5.238095e-01 -9.682540e-01 0.000000e+00
-4.920635e-01 -9.682540e-01 0.000000e+00
-4.603175e-01 -9.682540e-01 0.000000e+00
-4.285714e-01 -9.682540e-01 0.000000e+00
-3.968254e-01 -9.682540e-01 0.000000e+00
-3.650794e-01 -9.682540e-01 0.000000e+00
-3.333333e-01 -9.682540e-01 0.000000e+00
-3.015873e-01 -9.682540e-01 0.000000e+00
-2.698413e-01 -9.682540e-01 0.000000e+00
-2.380952e-01 -9.682540e-01 0.000000e+00
-2.063492e-01 -9.682540e-01 0.000000e+00
-1.746032e-01 -9.682540e-01 0.000000e+00
-1.428571e-01 -9.682540e-01 0.000000e+00
-1.111111e-01 -9.682540e-01 0.000000e+00
-7.936508e-02 -9.682540e-01 0.000000e+00
-4.761905e-02 -9.682540e-01 0.000000e+00
-1.587302e-02 -9.682540e-01 0.000000e+00
1.587302e-02 -9.682540e-01 0.000000e+00
4.761905e-02 -9.682540e-01 0.000000e+00
7.936508e-02 -9.682540e-01 0.000000e+00
1.111111e-01 -9.682540e-01 0.000000e+00
1.428571e-01 -9.682540e-01 0.000000e+00
1.746032e-01 -9.682540e-01 0.000000e+00
2.063492e-01 -9.682540e-01 0.000000e+00
2.380952e-01 -9.682540e-01 0.000000e+00
2.698413e-01 -9.682540e-01 0.000000e+00
3.015873e-01 -9.682540e-01 0.000000e+00
3.333333e-01 -9.682540e-01 0.000000e+00
3.650794e-01 -9.682540e-01 0.000000e+00
3.968254e-01 -9.682540e-01 0.000000e+00
4.285714e-01 -9.682540e-01 0.000000e+00
4.603175e-01 -9.682540e-01 0.000000e+00
4.920635e-01 -9.682540e-01 0.000000e+00
5.238095e-01 -9.682540e-01 0.000000e+00
5.555556e-01 -9.682540e-01 0.000000e+00
5.873016e-01 -9.682540e-01 0.000000e+00
6.190476e-01 -9.682540e-01 0.000000e+00
6.507937e-01 -9.682540e-01 0.000000e+00
6.825397e-01 -9.682540e-01 0.000000e+00
7.142857e-01 -9.682540e-01 0.000000e+00
7.460317e-01 -9.682540e-01 0.000000e+00
7.777778e-01 -9.682540e-01 0.000000e+00
8.095238e-01 -9.682540e-01 0.000000e+00
8.412698e-01 -9.682540e-01 0.000000e+00
8.730159e-01 -9.682540e-01 0.000000e+00
9.047619e-01 -9.682540e-01 0.000000e+00
9.365079e-01 -9.682540e-01 0.000000e+00
9.682540e-01 -9.682540e-01 0.000000e+00
1.000000e+00 -9.682540e-01 0.000000e+00
-1.000000e+00 -9.365079e-01 0.000000e+00
-9.682540e-01 -9.365079e-01 0.000000e+00
-9.365079e-01 -9.365079e-01 0.000000e+00
-9.047619e-01 -9.365079e-01 0.000000e+00
-8.730159e-01 -9.365079e-01 0.000000e+00
-8.412698e-01 -9.365079e-01 0.000000e+00
-8.095238e-01 -9.365079e-01 0.000000e+00
-7.777778e-01 -9.365079e-01 0.000000e+00
-7.460317e-01 -9.365079e-01 0.000000e+00
-7.142857e-01 -9.365079e-01 0.000000e+00
-6.825397e-01 -9.365079e-01 0.000000e+00
-6.507937e-01 -9.365079e-01 0.000000e+00
-6.190476e-01 -9.365079e-01 0.000000e+00
-5.873016e-01 -9.365079e-01 0.000000e+00
-5.555556e-01 -9.365079e-01 0.000000e+00
-5.238095e-01 -9.365079e-01 0.000000e+00
-4.920635e-01 -9.365079e-01 0.000000e+00
-4.603175e-01 -9.365079e-01 0.000000e+00
-4.285714e-01 -9.365079e-01 0.000000e+00
-3.968254e-01 -9.365079e-01 0.000000e+00
-3.650794e-01 -9.365079e-01 0.000000e+00
-3.333333e-01 -9.365079e-01 0.000000e+00
-3.015873e-01 -9.365079e-01 0.000000e+00
-2.698413e-01 -9.365079e-01 0.000000e+00
-2.380952e-01 -9.365079e-01 0.000000e+00
-2.063492e-01 -9.365079e-01 0.000000e+00
-1.746032e-01 -9.365079e-01 0.000000e+00
-1.428571e-01 -9.365079e-01 0.000000e+00
-1.111111e-01 -9.365079e-01 0.000000e+00
-7.936508e-02 -9.365079e-01 0.000000e+00
-4.761905e-02 -9.365079e-01 0.000000e+00
-1.587302e-02 -9.365079e-01 0.000000e+00
1.587302e-02 -9.365079e-01 0.000000e+00
4.761905e-02 -9.365079e-01 0.000000e+00
7.936508e-02 -9.365079e-01 0.000000e+00
1.111111e-01 -9.365079e-01 0.000000e+00
1.428571e-01 -9.365079e-01 0.000000e+00
1.746032e-01 -9.365079e-01 0.000000e+00
2.063492e-01 -9.365079e-01 0.000000e+00
2.380952e-01 -9.365079e-01 0.000000e+00
2.698413e-01 -9.365079e-01 0.000000e+00
3.015873e-01 -9.365079e-01 0.000000e+00
3.333333e-01 -9.365079e-01 0.000000e+00
3.650794e-01 -9.365079e-01 0.000000e+00
3.968254e-01 -9.365079e-01 0.000000e+00
4.285714e-01 -9.365079e-01 0.000000e+00
4.603175e-01 -9.365079e-01 0.000000e+00
4.920635e-01 -9.365079e-01 0.000000e+00
5.238095e-01 -9.365079e-01 0.000000e+00
5.555556e-01 -9.365079e-01 0.000000e+00
5.873016e-01 -9.365079e-01 0.000000e+00
6.190476e-01 -9.365079e-01 0.000000e+00
6.507937e-01 -9.365079e-01 0.000000e+00
6.825397e-01 -9.365079e-01 0.000000e+00
7.142857e-01 -9.365079e-01 0.000000e+00
7.460317e-01 -9.365079e-01 0.000000e+00
7.777778e-01 -9.365079e-01 0.000000e+00
8.095238e-01 -9.365079e-01 0.000000e+00
8.412698e-01 -9.365079e-01 0.000000e+00
8.730159e-01 -9.365079e-01 0.000000e+00
9.047619e-01 -9.365079e-01 0.000000e+00
9.365079e-01 -9.365079e-01 0.000000e+00
9.682540e-01 -9.365079e-01 0.000000e+00
1.000000e+00 -9.365079e-01 0.000000e+00
-1.000000e+00 -9.047619e-01 0.000000e+00
-9.682540e-01 -9.047619e-01 0.000000e+00
-9.365079e-01 -9.047619e-01 0.000000e+00
-9.047619e-01 -9.047619e-01 0.000000e+00
-8.730159e-01 -9.047619e-01 0.000000e+00
-8.412698e-01 -9.047619e-01 0.000000e+00
-8.095238e-01 -9.047619e-01 0.000000e+00
-7.777778e-01 -9.047619e-01 0.000000e+00
-7.460317e-01 -9.047619e-01 0.000000e+00
-7.142857e-01 -9.047619e-01 0.000000e+00
-6.825397e-01 -9.047619e-01 0.000000e+00
-6.507937e-01 -9.047619e-01 0.000000e+00
-6.190476e-01 -9.047619e-01 0.000000e+00
-5.873016e-01 -9.047619e-01 0.000000e+00
-5.555556e-01 -9.047619e-01 0.000000e+00
-5.238095e-01 -9.047619e-01 0.000000e+00
-4.920635e-01 -9.047619e-01 0.000000e+00
-4.603175e-01 -9.047619e-01 0.000000e+00
-4.285714e-01 -9.047619e-01 0.000000e+00
-3.968254e-01 -9.047619e-01 0.000000e+00
-3.650794e-01 -9.047619e-01 0.000000e+00
-3.333333e-01 -9.047619e-01 0.000000e+00
-3.015873e-01 -9.047619e-01 0.000000e+00
-2.698413e-01 -9.047619e-01 0.000000e+00
-2.380952e-01 -9.047619e-01 0.000000e+00
-2.063492e-01 -9.047619e-01 0.000000e+00
-1.746032e-01 -9.047619e-01 0.000000e+00
-1.428571e-01 -9.047619e-01 0.000000e+00
-1.111111e-01 -9.047619e-01 0.000000e+00
-7.936508e-02 -9.047619e-01 0.000000e+00
-4.761905e-02 -9.047619e-01 0.000000e+00
-1.587302e-02 -9.047619e-01 0.000000e+00
1.587302e-02 -9.047619e-01 0.000000e+00
4.761905e-02 -9.047619e-01 0.000000e+00
7.936508e-02 -9.047619e-01 0.000000e+00
1.111111e-01 -9.047619e-01 0.000000e+00
1.428571e-01 -9.047619e-01 0.000000e+00
1.746032e-01 -9.047619e-01 0.000000e+00
2.063492e-01 -9.047619e-01 0.000000e+00
2.380952e-01 -9.047619e-01 0.000000e+00
2.698413e-01 -9.047619e-01 0.000000e+00
3.015873e-01 -9.047619e-01 0.000000e+00
3.333333e-01 -9.047619e-01 0.000000e+00
3.650794e-01 -9.047619e-01 0.000000e+00
3.968254e-01 -9.047619e-01 0.000000e+00
4.285714e-01 -9.047619e-01 0.000000e+00
4.603175e-01 -9.047619e-01 0.000000e+00
4.920635e-01 -9.047619e-01 0.000000e+00
5.238095e-01 -9.047619e-01 0.000000e+00
5.555556e-01 -9.047619e-01 0.000000e+00
5.873016e-01 -9.047619e-01 0.000000e+00
6.190476e-01 -9.047619e-01 0.000000e+00
[...]
POINT_DATA 4096 
SCALARS concentration double 1 
LOOKUP_TABLE default 
1.452798e+00 
1.433187e+00 
1.413723e+00 
1.394407e+00 
1.375247e+00 
1.356271e+00 
1.337523e+00 
1.319047e+00 
1.300888e+00 
1.283087e+00 
1.265678e+00 
1.248692e+00 
1.232164e+00 
1.216124e+00 
1.200611e+00 
1.185669e+00 
1.171343e+00 
1.157678e+00 
1.144715e+00 
1.132489e+00 
1.121032e+00 
1.110372e+00 
1.100531e+00 
1.091529e+00 
1.083381e+00 
1.076099e+00 
1.069692e+00 
1.064170e+00 
1.059540e+00 
1.055808e+00 
1.052982e+00 
1.051071e+00 
1.050084e+00 
1.050010e+00 
1.050838e+00 
1.052556e+00 
1.055147e+00 
1.058595e+00 
1.062880e+00 
1.067981e+00 
1.073872e+00 
1.080528e+00 
1.087919e+00 
1.096012e+00 
1.104772e+00 
1.114161e+00 
1.124136e+00 
1.134654e+00 
1.145669e+00 
1.157132e+00 
1.168991e+00 
1.181194e+00 
1.193685e+00 
1.206403e+00 
1.219288e+00 
1.232273e+00 
1.245292e+00 
1.258273e+00 
1.271142e+00 
1.283826e+00 
1.296250e+00 
1.308340e+00 
1.320025e+00 
1.331242e+00 
1.432427e+00 
1.412114e+00 
1.392035e+00 
1.372074e+00 
1.352252e+00 
1.332620e+00 
1.313234e+00 
1.294145e+00 
1.275399e+00 
1.257033e+00 
1.239070e+00 
1.221537e+00 
1.204478e+00 
1.187912e+00 
1.171879e+00 
1.156438e+00 
1.141635e+00 
1.127517e+00 
1.114126e+00 
1.101500e+00 
1.089670e+00 
1.078663e+00 
1.068499e+00 
1.059195e+00 
1.050765e+00 
1.043216e+00 
1.036554e+00 
1.030783e+00 
1.025904e+00 
1.021918e+00 
1.018824e+00 
1.016620e+00 
1.015696e+00 
1.015707e+00 
1.016645e+00 
1.018496e+00 
1.021249e+00 
1.024885e+00 
1.029386e+00 
1.034731e+00 
1.040897e+00 
1.047856e+00 
1.055580e+00 
1.064037e+00 
1.073191e+00 
1.083005e+00 
1.093437e+00 
1.104444e+00 
1.115977e+00 
1.127990e+00 
1.140428e+00 
1.153240e+00 
1.166367e+00 
1.179750e+00 
1.193325e+00 
1.207028e+00 
1.220789e+00 
1.234537e+00 
1.248197e+00 
1.261694e+00 
1.274952e+00 
1.287895e+00 
1.300452e+00 
1.312555e+00 
1.411581e+00 
1.390588e+00 
1.369817e+00 
1.349181e+00 
1.328715e+00 
1.308472e+00 
1.288505e+00 
1.268862e+00 
1.249582e+00 
1.230695e+00 
1.212226e+00 
1.194204e+00 
1.176675e+00 
1.159657e+00 
1.143191e+00 
1.127326e+00 
1.112125e+00 
1.097641e+00 
1.083914e+00 
1.070985e+00 
1.058877e+00 
1.047616e+00 
1.037224e+00 
1.027720e+00 
1.019115e+00 
1.011417e+00 
1.004629e+00 
9.987523e-01 
9.937882e-01 
9.897369e-01 
9.865973e-01 
9.843675e-01 
9.830496e-01 
9.826565e-01 
9.832016e-01 
9.847258e-01 
9.872407e-01 
9.907410e-01 
9.952144e-01 
1.000639e+00 
1.006984e+00 
1.014212e+00 
1.022281e+00 
1.031146e+00 
1.040760e+00 
1.051076e+00 
1.062044e+00 
1.073617e+00 
1.085743e+00 
1.098372e+00 
1.111450e+00 
1.124924e+00 
1.138723e+00 
1.152785e+00 
1.167055e+00 
1.181471e+00 
1.195966e+00 
1.210470e+00 
1.224909e+00 
1.239205e+00 
1.253284e+00 
1.267067e+00 
1.280481e+00 
1.293457e+00 
1.390328e+00 
1.368680e+00 
1.347233e+00 
1.325948e+00 
1.304869e+00 
1.284047e+00 
1.263528e+00 
1.243351e+00 
1.223551e+00 
1.204150e+00 
1.185172e+00 
1.166646e+00 
1.148621e+00 
1.131131e+00 
1.114226e+00 
1.097958e+00 
1.082397e+00 
1.067592e+00 
1.053571e+00 
1.040374e+00 
1.028015e+00 
1.016523e+00 
1.005920e+00 
9.962224e-01 
9.874454e-01 
9.795989e-01 
9.726859e-01 
9.667067e-01 
9.616607e-01 
9.575472e-01 
9.543654e-01 
9.521130e-01 
9.507886e-01 
9.503919e-01 
9.509229e-01 
9.523857e-01 
9.547860e-01 
9.581315e-01 
9.624296e-01 
9.676855e-01 
9.739090e-01 
9.811213e-01 
9.892997e-01 
9.983839e-01 
1.008308e+00 
1.019013e+00 
1.030441e+00 
1.042530e+00 
1.055220e+00 
1.068452e+00 
1.082166e+00 
1.096301e+00 
1.110786e+00 
1.125542e+00 
1.140515e+00 
1.155647e+00 
1.170874e+00 
1.186128e+00 
1.201335e+00 
1.216421e+00 
1.231307e+00 
1.245916e+00 
1.260174e+00 
1.274008e+00 
1.368750e+00 
1.346472e+00 
1.324377e+00 
1.302480e+00 
1.280832e+00 
1.259464e+00 
1.238417e+00 
1.217722e+00 
1.197406e+00 
1.177489e+00 
1.157995e+00 
1.138962e+00 
1.120438e+00 
1.102481e+00 
1.085153e+00 
1.068515e+00 
1.052624e+00 
1.037522e+00 
1.023230e+00 
1.009787e+00 
9.972163e-01 
9.855397e-01 
9.747626e-01 
9.649020e-01 
9.559657e-01 
9.479643e-01 
9.409089e-01 
9.348046e-01 
9.296539e-01 
9.254579e-01 
9.222168e-01 
9.199293e-01 
9.185947e-01 
9.182111e-01 
9.187736e-01 
9.202777e-01 
9.227201e-01 
9.260996e-01 
9.304178e-01 
9.356762e-01 
9.418782e-01 
9.490315e-01 
9.571405e-01 
9.662061e-01 
9.762311e-01 
9.871569e-01 
9.989034e-01 
1.011399e+00 
1.024572e+00 
1.038351e+00 
1.052664e+00 
1.067440e+00 
1.082607e+00 
1.098063e+00 
1.113747e+00 
1.129600e+00 
1.145561e+00 
1.161561e+00 
1.177531e+00 
1.193396e+00 
1.209078e+00 
1.224501e+00 
1.239588e+00 
1.254267e+00 
1.346937e+00 
1.324056e+00 
1.301361e+00 
1.278902e+00 
1.256706e+00 
1.234802e+00 
1.213227e+00 
1.192010e+00 
1.171172e+00 
1.150730e+00 
1.130715e+00 
1.111177e+00 
1.092171e+00 
1.073775e+00 
1.056055e+00 
1.039076e+00 
1.022889e+00 
1.007537e+00 
9.930563e-01 
9.794575e-01 
9.667480e-01 
9.549359e-01 
9.440168e-01 
9.339953e-01 
9.248868e-01 
9.167147e-01 
9.094952e-01 
9.032399e-01 
8.979568e-01 
8.936503e-01 
8.903215e-01 
8.879688e-01 
8.865910e-01 
8.861878e-01 
8.867562e-01 
8.882907e-01 
8.907850e-01 
8.942331e-01 
8.986296e-01 
9.039698e-01 
9.102509e-01 
9.174729e-01 
9.256387e-01 
9.347472e-01 
9.448008e-01 
9.557873e-01 
9.677016e-01 
9.804697e-01 
9.940091e-01 
1.008239e+00 
1.023079e+00 
1.038446e+00 
1.054257e+00 
1.070408e+00 
1.086802e+00 
1.103379e+00 
1.120074e+00 
1.136820e+00 
1.153548e+00 
1.170185e+00 
1.186654e+00 
1.202878e+00 
1.218782e+00 
1.234291e+00 
1.324986e+00 
1.301528e+00 
1.278276e+00 
1.255272e+00 
1.232537e+00 
1.210099e+00 
1.187999e+00 
1.166258e+00 
1.144891e+00 
1.123917e+00 
1.103382e+00 
1.083348e+00 
1.063885e+00 
1.045085e+00 
1.027021e+00 
1.009775e+00 
9.934238e-01 
9.779649e-01 
9.633969e-01 
9.496945e-01 
9.368435e-01 
9.248452e-01 
9.137119e-01 
9.034651e-01 
8.941356e-01 
8.857530e-01 
8.783382e-01 
8.719071e-01 
8.664709e-01 
8.620364e-01 
8.586052e-01 
8.561755e-01 
8.547445e-01 
8.543100e-01 
8.548680e-01 
8.564149e-01 
8.589463e-01 
8.624575e-01 
8.669416e-01 
8.723905e-01 
8.787947e-01 
8.861462e-01 
8.944394e-01 
9.036717e-01 
9.138430e-01 
9.249502e-01 
9.369841e-01 
9.499213e-01 
9.637200e-01 
9.782983e-01 
9.935720e-01 
1.009452e+00 
1.025848e+00 
1.042657e+00 
1.059748e+00 
1.077040e+00 
1.094466e+00 
1.111956e+00 
1.129438e+00 
1.146841e+00 
1.164088e+00 
1.181104e+00 
1.197811e+00 
1.214137e+00 
1.302983e+00 
1.278972e+00 
1.255185e+00 
1.231648e+00 
1.208380e+00 
1.185415e+00 
1.162793e+00 
1.140526e+00 
1.118623e+00 
1.097115e+00 
1.076072e+00 
1.055566e+00 
1.035688e+00 
1.016562e+00 
9.983221e-01 
9.810121e-01 
9.646198e-01 
9.490939e-01 
9.343912e-01 
9.204940e-01 
9.074043e-01 
8.951393e-01 
8.837270e-01 
8.732025e-01 
8.636076e-01 
8.549775e-01 
8.473371e-01 
8.407053e-01 
8.350961e-01 
8.305174e-01 
8.269699e-01 
8.244504e-01 
8.229549e-01 
8.224795e-01 
8.230207e-01 
8.245760e-01 
8.271430e-01 
8.307184e-01 
8.352963e-01 
8.408675e-01 
8.474194e-01 
8.549379e-01 
8.634096e-01 
8.728238e-01 
8.831740e-01 
8.944540e-01 
9.066585e-01 
9.197800e-01 
9.337970e-01 
9.486559e-01 
9.642833e-01 
9.805968e-01 
9.975042e-01 
1.014903e+00 
1.032662e+00 
1.050652e+00 
1.068797e+00 
1.087023e+00 
1.105254e+00 
1.123417e+00 
1.141434e+00 
1.159231e+00 
1.176731e+00 
1.193860e+00 
1.281159e+00 
1.256616e+00 
1.232303e+00 
1.208237e+00 
1.184438e+00 
1.160947e+00 
1.137798e+00 
1.114995e+00 
1.092547e+00 
1.070512e+00 
1.048980e+00 
1.028058e+00 
1.007920e+00 
9.887071e-01 
9.704423e-01 
9.530973e-01 
9.365965e-01 
9.208846e-01 
9.059319e-01 
8.917390e-01 
8.783259e-01 
8.657286e-01 
8.539864e-01 
8.431425e-01 
8.332432e-01 
8.243293e-01 
8.164301e-01 
8.095678e-01 
8.037586e-01 
7.990108e-01 
7.953244e-01 
7.926949e-01 
7.911160e-01 
7.905832e-01 
7.910937e-01 
7.926465e-01 
7.952413e-01 
7.988766e-01 
8.035476e-01 
8.092448e-01 
8.159541e-01 
8.236573e-01 
8.323349e-01 
8.419685e-01 
8.525436e-01 
8.640495e-01 
8.764782e-01 
8.898212e-01 
9.040640e-01 
9.191755e-01 
9.351054e-01 
9.517852e-01 
9.691310e-01 
9.870449e-01 
1.005408e+00 
1.024061e+00 
1.042900e+00 
1.061840e+00 
1.080803e+00 
1.099710e+00 
1.118482e+00 
1.137043e+00 
1.155317e+00 
1.173229e+00 
1.259347e+00 
1.234294e+00 
1.209463e+00 
1.184873e+00 
1.160549e+00 
1.136544e+00 
1.112878e+00 
1.089539e+00 
1.066558e+00 
1.044050e+00 
1.022132e+00 
1.001020e+00 
9.808344e-01 
9.616186e-01 
9.433099e-01 
9.258167e-01 
9.090797e-01 
8.930669e-01 
8.777752e-01 
8.632216e-01 
8.494442e-01 
8.364868e-01 
8.243946e-01 
8.132138e-01 
8.029927e-01 
7.937763e-01 
7.855997e-01 
7.784901e-01 
7.724675e-01 
7.675420e-01 
7.637128e-01 
7.609733e-01 
7.593149e-01 
7.587313e-01 
7.592195e-01 
7.607804e-01 
7.634156e-01 
7.671255e-01 
7.719063e-01 
7.777486e-01 
7.846368e-01 
7.925501e-01 
8.014646e-01 
8.113561e-01 
8.222027e-01 
8.339867e-01 
8.466941e-01 
8.603132e-01 
8.748302e-01 
8.902238e-01 
9.064588e-01 
9.234837e-01 
9.412295e-01 
9.596094e-01 
9.785166e-01 
9.978024e-01 
1.017314e+00 
1.036957e+00 
1.056644e+00 
1.076291e+00 
1.095816e+00 
1.115139e+00 
1.134183e+00 
1.152875e+00 
1.237746e+00 
1.212201e+00 
1.186845e+00 
1.161735e+00 
1.136905e+00 
1.112405e+00 
1.088215e+00 
1.064343e+00 
1.040893e+00 
1.018027e+00 
9.959330e-01 
9.747768e-01 
9.546043e-01 
9.353235e-01 
9.168240e-01 
8.990399e-01 
8.819479e-01 
8.655506e-01 
8.498611e-01 
8.349121e-01 
8.207448e-01 
8.074065e-01 
7.949454e-01 
7.834089e-01 
7.728464e-01 
7.633070e-01 
7.548311e-01 
7.474518e-01 
7.411945e-01 
7.360715e-01 
7.320820e-01 
7.292184e-01 
7.274710e-01 
7.268330e-01 
7.273017e-01 
7.288784e-01 
7.315660e-01 
7.353649e-01 
7.402714e-01 
7.462749e-01 
7.533585e-01 
7.614991e-01 
7.706697e-01 
7.808418e-01 
7.919881e-01 
8.040846e-01 
8.171109e-01 
8.310498e-01 
8.458843e-01 
8.615948e-01 
8.781539e-01 
8.955226e-01 
9.136467e-01 
9.324542e-01 
9.518526e-01 
9.717168e-01 
9.918676e-01 
1.012187e+00 
1.032577e+00 
1.052947e+00 
1.073209e+00 
1.093281e+00 
1.113083e+00 
1.132539e+00 
1.216423e+00 
1.190403e+00 
1.164546e+00 
1.138942e+00 
1.113638e+00 
1.088636e+00 
1.063912e+00 
1.039544e+00 
1.015727e+00 
9.926568e-01 
9.705277e-01 
9.493962e-01 
9.291458e-01 
9.096411e-01 
8.908057e-01 
8.726214e-01 
8.551054e-01 
8.382758e-01 
8.221616e-01 
8.067959e-01 
7.922202e-01 
7.784831e-01 
7.656343e-01 
7.537229e-01 
7.428003e-01 
7.329195e-01 
7.241262e-01 
7.164580e-01 
7.099450e-01 
7.046034e-01 
7.004354e-01 
6.974336e-01 
6.955885e-01 
6.948934e-01 
6.953457e-01 
6.969464e-01 
6.996977e-01 
7.035998e-01 
7.086475e-01 
7.148291e-01 
7.221257e-01 
7.305120e-01 
7.399582e-01 
7.504322e-01 
7.619026e-01 
7.743402e-01 
7.877191e-01 
8.020160e-01 
8.172091e-01 
8.332760e-01 
8.501910e-01 
8.679216e-01 
8.864249e-01 
9.056430e-01 
9.254987e-01 
9.458871e-01 
9.666433e-01 
9.876093e-01 
1.008679e+00 
1.029753e+00 
1.050736e+00 
1.071542e+00 
1.092087e+00 
1.112295e+00 
1.195440e+00 
1.168962e+00 
1.142620e+00 
1.116545e+00 
1.090757e+00 
1.065232e+00 
1.040009e+00 
1.015252e+00 
9.912040e-01 
9.680951e-01 
9.459980e-01 
9.247821e-01 
9.042862e-01 
8.844100e-01 
8.651412e-01 
8.465024e-01 
8.285222e-01 
8.112386e-01 
7.946812e-01 
7.788823e-01 
7.638831e-01 
7.497312e-01 
7.364768e-01 
7.241721e-01 
7.128706e-01 
7.026292e-01 
6.934996e-01 
6.855240e-01 
6.787358e-01 
6.731569e-01 
6.687943e-01 
6.656422e-01 
6.636921e-01 
6.629375e-01 
6.633751e-01 
6.650049e-01 
6.678282e-01 
6.718439e-01 
6.770454e-01 
6.834194e-01 
6.909451e-01 
6.995950e-01 
7.093365e-01 
7.201339e-01 
7.319518e-01 
7.447567e-01 
7.585176e-01 
7.732059e-01 
7.887944e-01 
8.052561e-01 
8.225629e-01 
8.406839e-01 
8.595826e-01 
8.792119e-01 
8.995089e-01 
9.203866e-01 
9.417105e-01 
9.632914e-01 
9.850135e-01 
1.006768e+00 
1.028453e+00 
1.049976e+00 
1.071249e+00 
1.092193e+00 
1.174847e+00 
1.147925e+00 
1.121119e+00 
1.094576e+00 
1.068301e+00 
1.042281e+00 
1.016617e+00 
9.915844e-01 
9.674792e-01 
9.444040e-01 
9.222283e-01 
9.007586e-01 
8.798695e-01 
8.595384e-01 
8.397977e-01 
8.206781e-01 
8.022260e-01 
7.844764e-01 
7.674618e-01 
7.512138e-01 
7.357714e-01 
7.211829e-01 
7.075023e-01 
6.947845e-01 
6.830855e-01 
6.724646e-01 
6.629797e-01 
6.546780e-01 
6.475967e-01 
6.417624e-01 
6.371886e-01 
6.338740e-01 
6.318111e-01 
6.309926e-01 
6.314136e-01 
6.330730e-01 
6.359714e-01 
6.401071e-01 
6.454723e-01 
6.520519e-01 
6.598228e-01 
6.687548e-01 
6.788121e-01 
6.899554e-01 
7.021450e-01 
7.153430e-01 
7.295138e-01 
7.446240e-01 
7.606413e-01 
7.775333e-01 
7.952677e-01 
8.138119e-01 
8.331310e-01 
8.531850e-01 
8.739222e-01 
8.952714e-01 
9.171239e-01 
9.392944e-01 
9.616428e-01 
9.840541e-01 
1.006420e+00 
1.028640e+00 
1.050624e+00 
1.072287e+00 
1.154684e+00 
1.127335e+00 
1.100076e+00 
1.073066e+00 
1.046307e+00 
1.019811e+00 
9.938120e-01 
9.686797e-01 
9.446085e-01 
9.214716e-01 
8.990454e-01 
8.771737e-01 
8.558204e-01 
8.350149e-01 
8.147958e-01 
7.952009e-01 
7.762682e-01 
7.580372e-01 
7.405427e-01 
7.238188e-01 
7.079062e-01 
6.928563e-01 
6.787265e-01 
6.655753e-01 
6.534590e-01 
6.424384e-01 
6.325765e-01 
6.239267e-01 
6.165333e-01 
6.104286e-01 
6.056307e-01 
6.021418e-01 
5.999563e-01 
5.990670e-01 
5.994674e-01 
6.011554e-01 
6.041310e-01 
6.083922e-01 
6.139308e-01 
6.207299e-01 
6.287637e-01 
6.379984e-01 
6.483942e-01 
6.599078e-01 
6.724949e-01 
6.861128e-01 
7.007214e-01 
7.162828e-01 
7.327599e-01 
7.501152e-01 
7.683114e-01 
7.873118e-01 
8.070807e-01 
8.275807e-01 
8.487681e-01 
8.705844e-01 
8.929412e-01 
9.156754e-01 
9.386250e-01 
9.616693e-01 
9.846934e-01 
1.007591e+00 
1.030266e+00 
1.052631e+00 
1.135012e+00 
1.107249e+00 
1.079534e+00 
1.052051e+00 
1.024823e+00 
9.979323e-01 
9.717643e-01 
9.466366e-01 
9.225236e-01 
8.991522e-01 
8.763226e-01 
8.539842e-01 
8.321586e-01 
8.108760e-01 
7.901713e-01 
7.700819e-01 
7.506483e-01 
7.319117e-01 
7.139134e-01 
6.966919e-01 
6.802896e-01 
6.647576e-01 
6.501562e-01 
6.365468e-01 
6.239890e-01 
6.125462e-01 
6.022856e-01 
5.932667e-01 
5.855403e-01 
5.791455e-01 
5.741056e-01 
5.704275e-01 
5.681080e-01 
5.671409e-01 
5.675191e-01 
5.692390e-01 
5.722989e-01 
5.766962e-01 
5.824216e-01 
5.894570e-01 
5.977737e-01 
6.073342e-01 
6.180940e-01 
6.300049e-01 
6.430173e-01 
6.570836e-01 
6.721590e-01 
6.882009e-01 
7.051678e-01 
7.230175e-01 
7.417076e-01 
7.611965e-01 
7.814452e-01 
8.024166e-01 
8.240710e-01 
8.463599e-01 
8.692107e-01 
8.924866e-01 
9.160145e-01 
9.396686e-01 
9.633287e-01 
9.868831e-01 
1.010230e+00 
1.033277e+00 
1.116136e+00 
1.087970e+00 
1.059787e+00 
1.031850e+00 
1.004184e+00 
9.770332e-01 
9.508085e-01 
9.256454e-01 
9.013344e-01 
8.775624e-01 
8.542636e-01 
8.314500e-01 
8.091368e-01 
7.873487e-01 
7.661257e-01 
7.455080e-01 
7.255389e-01 
7.062652e-01 
6.877317e-01 
6.699794e-01 
6.530504e-01 
6.369977e-01 
6.218825e-01 
6.077720e-01 
5.947331e-01 
5.828290e-01 
5.721311e-01 
5.627052e-01 
5.546071e-01 
5.478849e-01 
5.425694e-01 
5.386710e-01 
5.361901e-01 
5.351193e-01 
5.354537e-01 
5.371897e-01 
5.403250e-01 
5.448548e-01 
5.507682e-01 
5.580447e-01 
5.666527e-01 
5.765503e-01 
5.876881e-01 
6.000120e-01 
6.134671e-01 
6.280000e-01 
6.435608e-01 
6.601026e-01 
6.775792e-01 
6.959441e-01 
7.151497e-01 
7.351493e-01 
7.558996e-01 
7.773613e-01 
7.994970e-01 
8.222633e-01 
8.456004e-01 
8.693946e-01 
8.934754e-01 
9.177115e-01 
9.419790e-01 
9.661615e-01 
9.901525e-01 
1.013857e+00 
1.097562e+00 
1.069012e+00 
1.040397e+00 
1.012037e+00 
9.840011e-01 
9.567015e-01 
9.304808e-01 
9.052209e-01 
8.805400e-01 
8.563254e-01 
8.325687e-01 
8.092749e-01 
7.864594e-01 
7.641545e-01 
7.424003e-01 
7.212437e-01 
7.007322e-01 
6.809128e-01 
6.618322e-01 
6.435334e-01 
6.260620e-01 
6.094707e-01 
5.938238e-01 
5.791940e-01 
5.656503e-01 
5.532634e-01 
5.421072e-01 
5.322559e-01 
5.237724e-01 
5.167115e-01 
5.111118e-01 
5.069903e-01 
5.043492e-01 
5.031852e-01 
5.034921e-01 
5.052656e-01 
5.085017e-01 
5.131939e-01 
5.193291e-01 
5.268839e-01 
5.358233e-01 
5.461011e-01 
5.576619e-01 
5.704451e-01 
5.843892e-01 
5.994343e-01 
6.155248e-01 
6.326086e-01 
6.506352e-01 
6.695540e-01 
6.893126e-01 
7.098596e-01 
7.311464e-01 
7.531305e-01 
7.757736e-01 
7.990370e-01 
8.228707e-01 
8.471829e-01 
8.718065e-01 
8.966124e-01 
9.214742e-01 
9.462712e-01 
9.708919e-01 
9.952370e-01 
1.079585e+00 
1.050663e+00 
1.021643e+00 
9.928796e-01 
9.645740e-01 
9.372255e-01 
9.109768e-01 
8.854008e-01 
8.603105e-01 
8.356541e-01 
8.114224e-01 
7.876272e-01 
7.642943e-01 
7.414547e-01 
7.191535e-01 
6.974424e-01 
6.763695e-01 
6.559817e-01 
6.363275e-01 
6.174556e-01 
5.994120e-01 
5.822522e-01 
5.660456e-01 
5.508647e-01 
5.367882e-01 
5.238892e-01 
5.122455e-01 
5.019383e-01 
4.930393e-01 
4.856112e-01 
4.797012e-01 
4.753349e-01 
4.725195e-01 
4.712536e-01 
4.715310e-01 
4.733463e-01 
4.766936e-01 
4.815640e-01 
4.879412e-01 
4.957991e-01 
5.050985e-01 
5.157879e-01 
5.278056e-01 
5.410838e-01 
5.555532e-01 
5.711469e-01 
5.878025e-01 
6.054624e-01 
6.240717e-01 
6.435753e-01 
6.639169e-01 
6.850399e-01 
7.068902e-01 
7.294207e-01 
7.525929e-01 
7.763711e-01 
8.007123e-01 
8.255407e-01 
8.507028e-01 
8.760691e-01 
9.015100e-01 
9.269030e-01 
9.521344e-01 
9.771026e-01 
1.062237e+00 
1.032957e+00 
1.003549e+00 
9.744262e-01 
9.459541e-01 
9.186018e-01 
8.921372e-01 
8.662044e-01 
8.406877e-01 
8.155614e-01 
7.908332e-01 
7.665275e-01 
7.426682e-01 
7.192903e-01 
6.964357e-01 
6.741551e-01 
6.525007e-01 
6.315212e-01 
6.112684e-01 
5.917951e-01 
5.731531e-01 
5.553981e-01 
5.385959e-01 
5.228308e-01 
5.081841e-01 
4.947374e-01 
4.825712e-01 
4.717731e-01 
4.624241e-01 
4.545965e-01 
4.483473e-01 
4.437113e-01 
4.407029e-01 
4.393241e-01 
4.395691e-01 
4.414309e-01 
4.449013e-01 
4.499682e-01 
4.566117e-01 
4.648014e-01 
4.744933e-01 
4.856298e-01 
4.981419e-01 
5.119535e-01 
5.269869e-01 
5.431670e-01 
5.604242e-01 
5.786948e-01 
5.979188e-01 
6.180365e-01 
6.389855e-01 
6.607065e-01 
6.831419e-01 
7.062405e-01 
7.299612e-01 
7.542692e-01 
7.791267e-01 
8.044694e-01 
8.301617e-01 
8.560775e-01 
8.820863e-01 
9.080614e-01 
9.338851e-01 
9.594557e-01 
1.045547e+00 
1.015921e+00 
9.861470e-01 
9.567264e-01 
9.281709e-01 
9.007441e-01 
8.739997e-01 
8.476558e-01 
8.216744e-01 
7.960612e-01 
7.708346e-01 
7.460145e-01 
7.216256e-01 
6.977041e-01 
6.742858e-01 
6.514191e-01 
6.291606e-01 
6.075664e-01 
5.866877e-01 
5.665838e-01 
5.473112e-01 
5.289229e-01 
5.114942e-01 
4.951077e-01 
4.798549e-01 
4.658232e-01 
4.530988e-01 
4.417737e-01 
4.319392e-01 
4.236773e-01 
4.170573e-01 
4.121250e-01 
4.089028e-01 
4.073981e-01 
4.076068e-01 
4.095209e-01 
4.131288e-01 
4.184141e-01 
4.253519e-01 
4.339066e-01 
4.440283e-01 
4.556524e-01 
4.687012e-01 
4.830893e-01 
4.987292e-01 
5.155369e-01 
5.334349e-01 
5.523523e-01 
5.722211e-01 
5.929788e-01 
6.145611e-01 
6.369043e-01 
6.599471e-01 
6.836348e-01 
7.079231e-01 
7.327761e-01 
7.581594e-01 
7.840153e-01 
8.102292e-01 
8.366811e-01 
8.632423e-01 
8.897849e-01 
9.161883e-01 
9.423444e-01 
1.029546e+00 
9.995853e-01 
9.694718e-01 
9.398164e-01 
9.112268e-01 
8.836356e-01 
8.565250e-01 
8.297404e-01 
8.033018e-01 
7.772034e-01 
7.514696e-01 
7.261275e-01 
7.011990e-01 
6.767199e-01 
6.527256e-01 
6.292637e-01 
6.063910e-01 
5.841657e-01 
5.626435e-01 
5.418834e-01 
5.219452e-01 
5.028927e-01 
4.847948e-01 
4.677458e-01 
4.518421e-01 
4.371806e-01 
4.238537e-01 
4.119584e-01 
4.015974e-01 
3.928634e-01 
3.858382e-01 
3.805792e-01 
3.771197e-01 
3.754741e-01 
3.756419e-01 
3.776145e-01 
3.813769e-01 
3.869068e-01 
3.941727e-01 
4.031317e-01 
4.137267e-01 
4.258845e-01 
4.395178e-01 
4.545302e-01 
4.708234e-01 
4.883033e-01 
5.068811e-01 
5.264785e-01 
5.470242e-01 
5.684513e-01 
5.906929e-01 
6.136818e-01 
6.373535e-01 
6.616500e-01 
6.865235e-01 
7.119365e-01 
7.378555e-01 
7.642258e-01 
7.909551e-01 
8.179303e-01 
8.450268e-01 
8.721178e-01 
8.990817e-01 
9.258142e-01 
1.014259e+00 
9.839754e-01 
9.535550e-01 
9.237221e-01 
8.951102e-01 
8.672549e-01 
8.397244e-01 
8.125160e-01 
7.856073e-01 
7.590205e-01 
7.327812e-01 
7.069127e-01 
6.814401e-01 
6.563968e-01 
6.318152e-01 