# vtk DataFile Version 2.0 
Quadtree Mesh 
ASCII 
DATASET UNSTRUCTURED_GRID 
POINTS 4096 double 
-1.000000e+00 -1.000000e+00 0.000000e+00
-9.682540e-01 -1.000000e+00 0.000000e+00
-9.365079e-01 -1.000000e+00 0.000000e+00
-9.047619e-01 -1.000000e+00 0.000000e+00
-8.730159e-01 -1.000000e+00 0.000000e+00
-8.412698e-01 -1.000000e+00 0.000000e+00
-8.095238e-01 -1.000000e+00 0.000000e+00
-7.777778e-01 -1.000000e+00 0.000000e+00
-7.460317e-01 -1.000000e+00 0.000000e+00
-7.142857e-01 -1.000000e+00 0.000000e+00
-6.825397e-01 -1.000000e+00 0.000000e+00
-6.507937e-01 -1.000000e+00 0.000000e+00
-6.190476e-01 -1.000000e+00 0.000000e+00
-5.873016e-01 -1.000000e+00 0.000000e+00
-5.555556e-01 -1.000000e+00 0.000000e+00
-5.238095e-01 -1.000000e+00 0.000000e+00
-4.920635e-01 -1.000000e+00 0.000000e+00
-4.603175e-01 -1.000000e+00 0.000000e+00
-4.285714e-01 -1.000000e+00 0.000000e+00
-3.968254e-01 -1.000000e+00 0.000000e+00
-3.650794e-01 -1.000000e+00 0.000000e+00
-3.333333e-01 -1.000000e+00 0.000000e+00
-3.015873e-01 -1.000000e+00 0.000000e+00
-2.698413e-01 -1.000000e+00 0.000000e+00
-2.380952e-01 -1.000000e+00 0.000000e+00
-2.063492e-01 -1.000000e+00 0.000000e+00
-1.746032e-01 -1.000000e+00 0.000000e+00
-1.428571e-01 -1.000000e+00 0.000000e+00
-1.111111e-01 -1.000000e+00 0.000000e+00
-7.936508e-02 -1.000000e+00 0.000000e+00
-4.761905e-02 -1.000000e+00 0.000000e+00
-1.587302e-02 -1.000000e+00 0.000000e+00
1.587302e-02 -1.000000e+00 0.000000e+00
4.761905e-02 -1.000000e+00 0.000000e+00
7.936508e-02 -1.000000e+00 0.000000e+00
1.111111e-01 -1.000000e+00 0.000000e+00
1.428571e-01 -1.000000e+00 0.000000e+00
1.746032e-01 -1.000000e+00 0.000000e+00
2.063492e-01 -1.000000e+00 0.000000e+00
2.380952e-01 -1.000000e+00 0.000000e+00
2.698413e-01 -1.000000e+00 0.000000e+00
3.015873e-01 -1.000000e+00 0.000000e+00
3.333333e-01 -1.000000e+00 0.000000e+00
3.650794e-01 -1.000000e+00 0.000000e+00
3.968254e-01 -1.000000e+00 0.000000e+00
4.285714e-01 -1.000000e+00 0.000000e+00
4.603175e-01 -1.000000e+00 0.000000e+00
4.920635e-01 -1.000000e+00 0.000000e+00
5.238095e-01 -1.000000e+00 0.000000e+00
5.555556e-01 -1.000000e+00 0.000000e+00
5.873016e-01 -1.000000e+00 0.000000e+00
6.190476e-01 -1.000000e+00 0.000000e+00
6.507937e-01 -1.000000e+00 0.000000e+00
6.825397e-01 -1.000000e+00 0.000000e+00
7.142857e-01 -1.000000e+00 0.000000e+00
7.460317e-01 -1.000000e+00 0.000000e+00
7.777778e-01 -1.000000e+00 0.000000e+00
8.095238e-01 -1.000000e+00 0.000000e+00
8.412698e-01 -1.000000e+00 0.000000e+00
8.730159e-01 -1.000000e+00 0.000000e+00
9.047619e-01 -1.000000e+00 0.000000e+00
9.365079e-01 -1.000000e+00 0.000000e+00
9.682540e-01 -1.000000e+00 0.000000e+00
1.000000e+00 -1.000000e+00 0.000000e+00
-1.000000e+00 -9.682540e-01 0.000000e+00
-9.682540e-01 -9.682540e-01 0.000000e+00
-9.365079e-01 -9.682540e-01 0.000000e+00
-9.047619e-01 -9.682540e-01 0.000000e+00
-8.730159e-01 -9.682540e-01 0.000000e+00
-8.412698e-01 -9.682540e-01 0.000000e+00
-8.095238e-01 -9.682540e-01 0.000000e+00
-7.777778e-01 -9.682540e-01 0.000000e+00
-7.460317e-01 -9.682540e-01 0.000000e+00
-7.142857e-01 -9.682540e-01 0.000000e+00
-6.825397e-01 -9.682540e-01 0.000000e+00
-6.507937e-01 -9.682540e-01 0.000000e+00
-6.190476e-01 -9.682540e-01 0.000000e+00
-5.873016e-01 -9.682540e-01 0.000000e+00
-5.555556e-01 -9.682540e-01 0.000000e+00
-5.238095e-01 -9.682540e-01 0.000000e+00
-4.920635e-01 -9.682540e-01 0.000000e+00
-4.603175e-01 -9.682540e-01 0.000000e+00
-4.285714e-01 -9.682540e-01 0.000000e+00
-3.968254e-01 -9.682540e-01 0.000000e+00
-3.650794e-01 -9.682540e-01 0.000000e+00
-3.333333e-01 -9.682540e-01 0.000000e+00
-3.015873e-01 -9.682540e-01 0.000000e+00
-2.698413e-01 -9.682540e-01 0.000000e+00
-2.380952e-01 -9.682540e-01 0.000000e+00
-2.063492e-01 -9.682540e-01 0.000000e+00
-1.746032e-01 -9.682540e-01 0.000000e+00
-1.428571e-01 -9.682540e-01 0.000000e+00
-1.111111e-01 -9.682540e-01 0.000000e+00
-7.936508e-02 -9.682540e-01 0.000000e+00
-4.761905e-02 -9.682540e-01 0.000000e+00
-1.587302e-02 -9.682540e-01 0.000000e+00
1.587302e-02 -9.682540e-01 0.000000e+00
4.761905e-02 -9.682540e-01 0.000000e+00
7.936508e-02 -9.682540e-01 0.000000e+00
1.111111e-01 -9.682540e-01 0.000000e+00
1.428571e-01 -9.682540e-01 0.000000e+00
1.746032e-01 -9.682540e-01 0.000000e+00
2.063492e-01 -9.682540e-01 0.000000e+00
2.380952e-01 -9.682540e-01 0.000000e+00
2.698413e-01 -9.682540e-01 0.000000e+00
3.015873e-01 -9.682540e-01 0.000000e+00
3.333333e-01 -9.682540e-01 0.000000e+00
3.650794e-01 -9.682540e-01 0.000000e+00
3.968254e-01 -9.682540e-01 0.000000e+00
4.285714e-01 -9.682540e-01 0.000000e+00
4.603175e-01 -9.682540e-01 0.000000e+00
4.920635e-01 -9.682540e-01 0.000000e+00
5.238095e-01 -9.682540e-01 0.000000e+00
5.555556e-01 -9.682540e-01 0.000000e+00
5.873016e-01 -9.682540e-01 0.000000e+00
6.190476e-01 -9.682540e-01 0.000000e+00
6.507937e-01 -9.682540e-01 0.000000e+00
6.825397e-01 -9.682540e-01 0.000000e+00
7.142857e-01 -9.682540e-01 0.000000e+00
7.460317e-01 -9.682540e-01 0.000000e+00
7.777778e-01 -9.682540e-01 0.000000e+00
8.095238e-01 -9.682540e-01 0.000000e+00
8.412698e-01 -9.682540e-01 0.000000e+00
8.730159e-01 -9.682540e-01 0.000000e+00
9.047619e-01 -9.682540e-01 0.000000e+00
9.365079e-01 -9.682540e-01 0.000000e+00
9.682540e-01 -9.682540e-01 0.000000e+00
1.000000e+00 -9.682540e-01 0.000000e+00
-1.000000e+00 -9.365079e-01 0.000000e+00
-9.682540e-01 -9.365079e-01 0.000000e+00
-9.365079e-01 -9.365079e-01 0.000000e+00
-9.047619e-01 -9.365079e-01 0.000000e+00
-8.730159e-01 -9.365079e-01 0.000000e+00
-8.412698e-01 -9.365079e-01 0.000000e+00
-8.095238e-01 -9.365079e-01 0.000000e+00
-7.777778e-01 -9.365079e-01 0.000000e+00
-7.460317e-01 -9.365079e-01 0.000000e+00
-7.142857e-01 -9.365079e-01 0.000000e+00
-6.825397e-01 -9.365079e-01 0.000000e+00
-6.507937e-01 -9.365079e-01 0.000000e+00
-6.190476e-01 -9.365079e-01 0.000000e+00
-5.873016e-01 -9.365079e-01 0.000000e+00
-5.555556e-01 -9.365079e-01 0.000000e+00
-5.238095e-01 -9.365079e-01 0.000000e+00
-4.920635e-01 -9.365079e-01 0.000000e+00
-4.603175e-01 -9.365079e-01 0.000000e+00
-4.285714e-01 -9.365079e-01 0.000000e+00
-3.968254e-01 -9.365079e-01 0.000000e+00
-3.650794e-01 -9.365079e-01 0.000000e+00
-3.333333e-01 -9.365079e-01 0.000000e+00
-3.015873e-01 -9.365079e-01 0.000000e+00
-2.698413e-01 -9.365079e-01 0.000000e+00
-2.380952e-01 -9.365079e-01 0.000000e+00
-2.063492e-01 -9.365079e-01 0.000000e+00
-1.746032e-01 -9.365079e-01 0.000000e+00
-1.428571e-01 -9.365079e-01 0.000000e+00
-1.111111e-01 -9.365079e-01 0.000000e+00
-7.936508e-02 -9.365079e-01 0.000000e+00
-4.761905e-02 -9.365079e-01 0.000000e+00
-1.587302e-02 -9.365079e-01 0.000000e+00
1.587302e-02 -9.365079e-01 0.000000e+00
4.761905e-02 -9.365079e-01 0.000000e+00
7.936508e-02 -9.365079e-01 0.000000e+00
1.111111e-01 -9.365079e-01 0.000000e+00
1.428571e-01 -9.365079e-01 0.000000e+00
1.746032e-01 -9.365079e-01 0.000000e+00
2.063492e-01 -9.365079e-01 0.000000e+00
2.380952e-01 -9.365079e-01 0.000000e+00
2.698413e-01 -9.365079e-01 0.000000e+00
3.015873e-01 -9.365079e-01 0.000000e+00
3.333333e-01 -9.365079e-01 0.000000e+00
3.650794e-01 -9.365079e-01 0.000000e+00
3.968254e-01 -9.365079e-01 0.000000e+00
4.285714e-01 -9.365079e-01 0.000000e+00
4.603175e-01 -9.365079e-01 0.000000e+00
4.920635e-01 -9.365079e-01 0.000000e+00
5.238095e-01 -9.365079e-01 0.000000e+00
5.555556e-01 -9.365079e-01 0.000000e+00
5.873016e-01 -9.365079e-01 0.000000e+00
6.190476e-01 -9.365079e-01 0.000000e+00
6.507937e-01 -9.365079e-01 0.000000e+00
6.825397e-01 -9.365079e-01 0.000000e+00
7.142857e-01 -9.365079e-01 0.000000e+00
7.460317e-01 -9.365079e-01 0.000000e+00
7.777778e-01 -9.365079e-01 0.000000e+00
8.095238e-01 -9.365079e-01 0.000000e+00
8.412698e-01 -9.365079e-01 0.000000e+00
8.730159e-01 -9.365079e-01 0.000000e+00
9.047619e-01 -9.365079e-01 0.000000e+00
9.365079e-01 -9.365079e-01 0.000000e+00
9.682540e-01 -9.365079e-01 0.000000e+00
1.000000e+00 -9.365079e-01 0.000000e+00
-1.000000e+00 -9.047619e-01 0.000000e+00
-9.682540e-01 -9.047619e-01 0.000000e+00
-9.365079e-01 -9.047619e-01 0.000000e+00
-9.047619e-01 -9.047619e-01 0.000000e+00
-8.730159e-01 -9.047619e-01 0.000000e+00
-8.412698e-01 -9.047619e-01 0.000000e+00
-8.095238e-01 -9.047619e-01 0.000000e+00
-7.777778e-01 -9.047619e-01 0.000000e+00
-7.460317e-01 -9.047619e-01 0.000000e+00
-7.142857e-01 -9.047619e-01 0.000000e+00
-6.825397e-01 -9.047619e-01 0.000000e+00
-6.507937e-01 -9.047619e-01 0.000000e+00
-6.190476e-01 -9.047619e-01 0.000000e+00
-5.873016e-01 -9.047619e-01 0.000000e+00
-5.555556e-01 -9.047619e-01 0.000000e+00
-5.238095e-01 -9.047619e-01 0.000000e+00
-4.920635e-01 -9.047619e-01 0.000000e+00
-4.603175e-01 -9.047619e-01 0.000000e+00
-4.285714e-01 -9.047619e-01 0.000000e+00
-3.968254e-01 -9.047619e-01 0.000000e+00
-3.650794e-01 -9.047619e-01 0.000000e+00
-3.333333e-01 -9.047619e-01 0.000000e+00
-3.015873e-01 -9.047619e-01 0.000000e+00
-2.698413e-01 -9.047619e-01 0.000000e+00
-2.380952e-01 -9.047619e-01 0.000000e+00
-2.063492e-01 -9.047619e-01 0.000000e+00
-1.746032e-01 -9.047619e-01 0.000000e+00
-1.428571e-01 -9.047619e-01 0.000000e+00
-1.111111e-01 -9.047619e-01 0.000000e+00
-7.936508e-02 -9.047619e-01 0.000000e+00
-4.761905e-02 -9.047619e-01 0.000000e+00
-1.587302e-02 -9.047619e-01 0.000000e+00
1.587302e-02 -9.047619e-01 0.000000e+00
4.761905e-02 -9.047619e-01 0.000000e+00
7.936508e-02 -9.047619e-01 0.000000e+00
1.111111e-01 -9.047619e-01 0.000000e+00
1.428571e-01 -9.047619e-01 0.000000e+00
1.746032e-01 -9.047619e-01 0.000000e+00
2.063492e-01 -9.047619e-01 0.000000e+00
2.380952e-01 -9.047619e-01 0.000000e+00
2.698413e-01 -9.047619e-01 0.000000e+00
3.015873e-01 -9.047619e-01 0.000000e+00
3.333333e-01 -9.047619e-01 0.000000e+00
3.650794e-01 -9.047619e-01 0.000000e+00
3.968254e-01 -9.047619e-01 0.000000e+00
4.285714e-01 -9.047619e-01 0.000000e+00
4.603175e-01 -9.047619e-01 0.000000e+00
4.920635e-01 -9.047619e-01 0.000000e+00
5.238095e-01 -9.047619e-01 0.000000e+00
5.555556e-01 -9.047619e-01 0.000000e+00
5.873016e-01 -9.047619e-01 0.000000e+00
6.190476e-01 -9.047619e-01 0.000000e+00
[...]
POINT_DATA 4096 
SCALARS concentration double 1 
LOOKUP_TABLE default 
1.436720e+00 
1.415255e+00 
1.393387e+00 
1.371184e+00 
1.348711e+00 
1.326036e+00 
1.303224e+00 
1.280340e+00 
1.257447e+00 
1.234609e+00 
1.211889e+00 
1.189348e+00 
1.167047e+00 
1.145048e+00 
1.123410e+00 
1.102189e+00 
1.081441e+00 
1.061214e+00 
1.041557e+00 
1.022517e+00 
1.004141e+00 
9.864745e-01 
9.695620e-01 
9.534464e-01 
9.381695e-01 
9.237719e-01 
9.102931e-01 
8.977719e-01 
8.862467e-01 
8.757558e-01 
8.663391e-01 
8.580383e-01 
8.508941e-01 
8.449330e-01 
8.401783e-01 
8.366497e-01 
8.343634e-01 
8.333319e-01 
8.335640e-01 
8.350647e-01 
8.378348e-01 
8.418713e-01 
8.471671e-01 
8.537110e-01 
8.614880e-01 
8.704790e-01 
8.806610e-01 
8.920067e-01 
9.044852e-01 
9.180614e-01 
9.326965e-01 
9.483476e-01 
9.649684e-01 
9.825084e-01 
1.000914e+00 
1.020127e+00 
1.040087e+00 
1.060727e+00 
1.081979e+00 
1.103767e+00 
1.126013e+00 
1.148630e+00 
1.171527e+00 
1.194604e+00 
1.422718e+00 
1.400265e+00 
1.377417e+00 
1.354244e+00 
1.330815e+00 
1.307196e+00 
1.283454e+00 
1.259655e+00 
1.235864e+00 
1.212144e+00 
1.188561e+00 
1.165179e+00 
1.142061e+00 
1.119269e+00 
1.096865e+00 
1.074906e+00 
1.053444e+00 
1.032520e+00 
1.012182e+00 
9.924796e-01 
9.734617e-01 
9.551735e-01 
9.376585e-01 
9.209583e-01 
9.051130e-01 
8.901609e-01 
8.761391e-01 
8.630829e-01 
8.510251e-01 
8.399961e-01 
8.300316e-01 
8.211637e-01 
8.137195e-01 
8.075016e-01 
8.025345e-01 
7.988390e-01 
7.964320e-01 
7.953267e-01 
7.955322e-01 
7.970538e-01 
7.998925e-01 
8.040451e-01 
8.095041e-01 
8.162579e-01 
8.242907e-01 
8.335825e-01 
8.441088e-01 
8.558414e-01 
8.687476e-01 
8.827907e-01 
8.979298e-01 
9.141203e-01 
9.313135e-01 
9.494570e-01 
9.684947e-01 
9.883666e-01 
1.009009e+00 
1.030355e+00 
1.052332e+00 
1.074865e+00 
1.097873e+00 
1.121268e+00 
1.144960e+00 
1.168846e+00 
1.408325e+00 
1.384888e+00 
1.361066e+00 
1.336931e+00 
1.312551e+00 
1.287996e+00 
1.263331e+00 
1.238624e+00 
1.213941e+00 
1.189348e+00 
1.164912e+00 
1.140700e+00 
1.116778e+00 
1.093210e+00 
1.070059e+00 
1.047381e+00 
1.025219e+00 
1.003623e+00 
9.826453e-01 
9.623337e-01 
9.427350e-01 
9.238930e-01 
9.058494e-01 
8.886440e-01 
8.723153e-01 
8.569010e-01 
8.424374e-01 
8.289597e-01 
8.165017e-01 
8.050962e-01 
7.947752e-01 
7.855701e-01 
7.775219e-01 
7.706863e-01 
7.651161e-01 
7.608607e-01 
7.579632e-01 
7.564580e-01 
7.563693e-01 
7.577098e-01 
7.604817e-01 
7.646770e-01 
7.702794e-01 
7.772658e-01 
7.856084e-01 
7.952757e-01 
8.062334e-01 
8.184450e-01 
8.318717e-01 
8.464735e-01 
8.622043e-01 
8.790167e-01 
8.968598e-01 
9.156797e-01 
9.354186e-01 
9.560150e-01 
9.774037e-01 
9.995154e-01 
1.022277e+00 
1.045611e+00 
1.069435e+00 
1.093663e+00 
1.118200e+00 
1.142945e+00 
1.393591e+00 
1.369177e+00 
1.344390e+00 
1.319301e+00 
1.293980e+00 
1.268497e+00 
1.242919e+00 
1.217312e+00 
1.191747e+00 
1.166292e+00 
1.141016e+00 
1.115990e+00 
1.091283e+00 
1.066961e+00 
1.043086e+00 
1.019708e+00 
9.968743e-01 
9.746399e-01 
9.530554e-01 
9.321685e-01 
9.120231e-01 
8.926597e-01 
8.741169e-01 
8.564317e-01 
8.396407e-01 
8.237805e-01 
8.088871e-01 
7.949959e-01 
7.821410e-01 
7.703554e-01 
7.596712e-01 
7.501201e-01 
7.417433e-01 
7.345866e-01 
7.286881e-01 
7.240856e-01 
7.208184e-01 
7.189277e-01 
7.184482e-01 
7.194111e-01 
7.218546e-01 
7.258248e-01 
7.313121e-01 
7.383011e-01 
7.467659e-01 
7.566699e-01 
7.679683e-01 
7.806103e-01 
7.945421e-01 
8.097087e-01 
8.260540e-01 
8.435206e-01 
8.620500e-01 
8.815827e-01 
9.020573e-01 
9.234099e-01 
9.455733e-01 
9.684768e-01 
9.920458e-01 
1.016202e+00 
1.040861e+00 
1.065936e+00 
1.091332e+00 
1.116946e+00 
1.378571e+00 
1.353190e+00 
1.327448e+00 
1.301416e+00 
1.275165e+00 
1.248763e+00 
1.222280e+00 
1.195785e+00 
1.169349e+00 
1.143045e+00 
1.116948e+00 
1.091130e+00 
1.065664e+00 
1.040618e+00 
1.016045e+00 
9.919966e-01 
9.685287e-01 
9.456958e-01 
9.235473e-01 
9.021274e-01 
8.814755e-01 
8.616278e-01 
8.426183e-01 
8.244804e-01 
8.072486e-01 
7.909585e-01 
7.756463e-01 
7.613484e-01 
7.480998e-01 
7.359345e-01 
7.248849e-01 
7.149832e-01 
7.062725e-01 
6.988020e-01 
6.926102e-01 
6.877315e-01 
6.841988e-01 
6.820449e-01 
6.813022e-01 
6.820030e-01 
6.841777e-01 
6.878603e-01 
6.930812e-01 
6.998903e-01 
7.082784e-01 
7.182241e-01 
7.296899e-01 
7.426237e-01 
7.569621e-01 
7.726349e-01 
7.895687e-01 
8.076891e-01 
8.269227e-01 
8.471970e-01 
8.684412e-01 
8.905844e-01 
9.135552e-01 
9.372802e-01 
9.616829e-01 
9.866836e-01 
1.012198e+00 
1.038137e+00 
1.064407e+00 
1.090901e+00 
1.363321e+00 
1.336986e+00 
1.310300e+00 
1.283337e+00 
1.256167e+00 
1.228859e+00 
1.201482e+00 
1.174110e+00 
1.146817e+00 
1.119684e+00 
1.092788e+00 
1.066208e+00 
1.040016e+00 
1.014276e+00 
9.890388e-01 
9.643638e-01 
9.403093e-01 
9.169280e-01 
8.942651e-01 
8.723592e-01 
8.512443e-01 
8.309516e-01 
8.115082e-01 
7.929439e-01 
7.752915e-01 
7.585861e-01 
7.428650e-01 
7.281657e-01 
7.145253e-01 
7.019795e-01 
6.905624e-01 
6.803066e-01 
6.712578e-01 
6.634686e-01 
6.569794e-01 
6.518263e-01 
6.480422e-01 
6.456574e-01 
6.446996e-01 
6.451919e-01 
6.471612e-01 
6.506368e-01 
6.556500e-01 
6.622383e-01 
6.704444e-01 
6.802953e-01 
6.917700e-01 
7.048330e-01 
7.194297e-01 
7.354883e-01 
7.529247e-01 
7.716477e-01 
7.915644e-01 
8.125832e-01 
8.346160e-01 
8.575783e-01 
8.813886e-01 
9.059669e-01 
9.312327e-01 
9.571041e-01 
9.834955e-01 
1.010317e+00 
1.037475e+00 
1.064861e+00 
1.347898e+00 
1.320621e+00 
1.293007e+00 
1.265127e+00 
1.237050e+00 
1.208846e+00 
1.180587e+00 
1.152352e+00 
1.124222e+00 
1.096283e+00 
1.068620e+00 
1.041313e+00 
1.014433e+00 
9.880348e-01 
9.621819e-01 
9.369357e-01 
9.123517e-01 
8.884789e-01 
8.653545e-01 
8.430101e-01 
8.214751e-01 
8.007763e-01 
7.809386e-01 
7.619874e-01 
7.439505e-01 
7.268596e-01 
7.107506e-01 
6.956632e-01 
6.816370e-01 
6.687108e-01 
6.569230e-01 
6.463112e-01 
6.369240e-01 
6.288144e-01 
6.220225e-01 
6.165832e-01 
6.125297e-01 
6.098944e-01 
6.087078e-01 
6.089954e-01 
6.107792e-01 
6.140812e-01 
6.189270e-01 
6.253478e-01 
6.333786e-01 
6.430698e-01 
6.544519e-01 
6.675211e-01 
6.822376e-01 
6.985431e-01 
7.163581e-01 
7.355861e-01 
7.561196e-01 
7.778472e-01 
8.006591e-01 
8.244505e-01 
8.491228e-01 
8.745828e-01 
9.007415e-01 
9.275112e-01 
9.548039e-01 
9.825287e-01 
1.010591e+00 
1.038880e+00 
1.332351e+00 
1.304150e+00 
1.275623e+00 
1.246839e+00 
1.217868e+00 
1.188780e+00 
1.159653e+00 
1.130573e+00 
1.101630e+00 
1.072918e+00 
1.044525e+00 
1.016532e+00 
9.889999e-01 
9.619983e-01 
9.355918e-01 
9.098389e-01 
8.847910e-01 
8.604913e-01 
8.369706e-01 
8.142563e-01 
7.923704e-01 
7.713311e-01 
7.511549e-01 
7.318596e-01 
7.134666e-01 
6.960041e-01 
6.795065e-01 
6.640131e-01 
6.495695e-01 
6.362241e-01 
6.240252e-01 
6.130194e-01 
6.032610e-01 
5.948058e-01 
5.876964e-01 
5.819685e-01 
5.776543e-01 
5.747835e-01 
5.733825e-01 
5.734748e-01 
5.750834e-01 
5.782311e-01 
5.829391e-01 
5.892301e-01 
5.971312e-01 
6.066810e-01 
6.179260e-01 
6.309025e-01 
6.456193e-01 
6.620440e-01 
6.801089e-01 
6.997227e-01 
7.207742e-01 
7.431385e-01 
7.666861e-01 
7.912893e-01 
8.168267e-01 
8.431857e-01 
8.702616e-01 
8.979564e-01 
9.261755e-01 
9.548247e-01 
9.838079e-01 
1.013012e+00 
1.316564e+00 
1.287458e+00 
1.258035e+00 
1.228362e+00 
1.198508e+00 
1.168549e+00 
1.138571e+00 
1.108669e+00 
1.078944e+00 
1.049493e+00 
1.020411e+00 
9.917702e-01 
9.636450e-01 
9.361116e-01 
9.092340e-01 
8.830646e-01 
8.576463e-01 
8.330100e-01 
8.091753e-01 
7.861540e-01 
7.639531e-01 
7.425806e-01 
7.220453e-01 
7.023603e-01 
6.835475e-01 
6.656382e-01 
6.486728e-01 
6.326973e-01 
6.177641e-01 
6.039312e-01 
5.912574e-01 
5.797995e-01 
5.696222e-01 
5.607896e-01 
5.533473e-01 
5.473321e-01 
5.427760e-01 
5.397036e-01 
5.381362e-01 
5.380851e-01 
5.395797e-01 
5.426358e-01 
5.472690e-01 
5.534968e-01 
5.613394e-01 
5.708195e-01 
5.819652e-01 
5.948224e-01 
6.094376e-01 
6.258366e-01 
6.440097e-01 
6.638954e-01 
6.853756e-01 
7.083047e-01 
7.325366e-01 
7.579243e-01 
7.843234e-01 
8.115972e-01 
8.396197e-01 
8.682759e-01 
8.974593e-01 
9.270688e-01 
9.570044e-01 
9.871471e-01 
1.301054e+00 
1.271059e+00 
1.240754e+00 
1.210204e+00 
1.179479e+00 
1.148664e+00 
1.117856e+00 
1.087167e+00 
1.056706e+00 
1.026579e+00 
9.968698e-01 
9.676635e-01 
9.390410e-01 
9.110822e-01 
8.838511e-01 
8.573916e-01 
8.317266e-01 
8.068612e-01 
7.827886e-01 
7.594973e-01 
7.369784e-01 
7.152306e-01 
6.942638e-01 
6.741000e-01 
6.547726e-01 
6.363242e-01 
6.188054e-01 
6.022701e-01 
5.867811e-01 
5.724076e-01 
5.592187e-01 
5.472806e-01 
5.366632e-01 
5.274344e-01 
5.196463e-01 
5.133413e-01 
5.085520e-01 
5.053019e-01 
5.036068e-01 
5.034773e-01 
5.049232e-01 
5.079539e-01 
5.125793e-01 
5.188107e-01 
5.266594e-01 
5.361266e-01 
5.472290e-01 
5.600067e-01 
5.745188e-01 
5.908290e-01 
6.089849e-01 
6.289814e-01 
6.507327e-01 
6.741004e-01 
6.989222e-01 
7.250274e-01 
7.522403e-01 
7.803987e-01 
8.093534e-01 
8.389682e-01 
8.691201e-01 
8.996962e-01 
9.305893e-01 
9.616725e-01 
1.285630e+00 
1.254765e+00 
1.223594e+00 
1.192178e+00 
1.160594e+00 
1.128939e+00 
1.097330e+00 
1.065890e+00 
1.034739e+00 
1.003979e+00 
9.737010e-01 
9.440134e-01 
9.150125e-01 
8.867718e-01 
8.593344e-01 
8.327125e-01 
8.068932e-01 
7.818473e-01 
7.575398e-01 
7.339412e-01 
7.110346e-01 
6.888214e-01 
6.673217e-01 
6.465731e-01 
6.266268e-01 
6.075402e-01 
5.893740e-01 
5.721994e-01 
5.560913e-01 
5.411254e-01 
5.273770e-01 
5.149194e-01 
5.038307e-01 
4.941854e-01 
4.860410e-01 
4.794439e-01 
4.744300e-01 
4.710241e-01 
4.692398e-01 
4.690813e-01 
4.705474e-01 
4.736352e-01 
4.783428e-01 
4.846702e-01 
4.926194e-01 
5.021904e-01 
5.133735e-01 
5.261796e-01 
5.406540e-01 
5.568686e-01 
5.749341e-01 
5.949143e-01 
6.167901e-01 
6.404594e-01 
6.657596e-01 
6.924905e-01 
7.204543e-01 
7.494607e-01 
7.793311e-01 
8.099035e-01 
8.410326e-01 
8.725880e-01 
9.044485e-01 
9.364855e-01 
1.270355e+00 
1.238642e+00 
1.206618e+00 
1.174345e+00 
1.141914e+00 
1.109443e+00 
1.077067e+00 
1.044924e+00 
1.013138e+00 
9.818216e-01 
9.511070e-01 
9.211108e-01 
8.919146e-01 
8.635563e-01 
8.360334e-01 
8.093122e-01 
7.833403e-01 
7.580605e-01 
7.334238e-01 
7.093989e-01 
6.859771e-01 
6.631737e-01 
6.410261e-01 
6.195897e-01 
5.989329e-01 
5.791307e-01 
5.602619e-01 
5.424062e-01 
5.256424e-01 
5.100488e-01 
4.957040e-01 
4.826868e-01 
4.710850e-01 
4.609851e-01 
4.524540e-01 
4.455455e-01 
4.403000e-01 
4.367451e-01 
4.348942e-01 
4.347473e-01 
4.362942e-01 
4.395187e-01 
4.444030e-01 
4.509315e-01 
4.590913e-01 
4.688721e-01 
4.802624e-01 
4.932405e-01 
5.078187e-01 
5.240533e-01 
5.420419e-01 
5.619111e-01 
5.837582e-01 
6.075585e-01 
6.331841e-01 
6.604352e-01 
6.890815e-01 
7.188918e-01 
7.496511e-01 
7.811671e-01 
8.132674e-01 
8.458012e-01 
8.786335e-01 
9.116452e-01 
1.255293e+00 
1.222753e+00 
1.189884e+00 
1.156761e+00 
1.123500e+00 
1.090243e+00 
1.057144e+00 
1.024361e+00 
9.920293e-01 
9.603059e-01 
9.293323e-01 
8.992062e-01 
8.699642e-01 
8.415858e-01 
8.140117e-01 
7.871616e-01 
7.609530e-01 
7.353179e-01 
7.102141e-01 
6.856285e-01 
6.615756e-01 
6.380931e-01 
6.152365e-01 
5.930743e-01 
5.716831e-01 
5.511451e-01 
5.315465e-01 
5.129748e-01 
4.955172e-01 
4.792556e-01 
4.642740e-01 
4.506566e-01 
4.384996e-01 
4.279001e-01 
4.189368e-01 
4.116748e-01 
4.061647e-01 
4.024410e-01 
4.005204e-01 
4.004016e-01 
4.020678e-01 
4.054903e-01 
4.106348e-01 
4.174656e-01 
4.259500e-01 
4.360601e-01 
4.477718e-01 
4.610562e-01 
4.758848e-01 
4.922845e-01 
5.103321e-01 
5.301468e-01 
5.518769e-01 
5.756434e-01 
6.014123e-01 
6.290328e-01 
6.582512e-01 
6.887884e-01 
7.203911e-01 
7.528264e-01 
7.858890e-01 
8.194017e-01 
8.532116e-01 
8.872155e-01 
1.240506e+00 
1.207163e+00 
1.173448e+00 
1.139486e+00 
1.105418e+00 
1.071421e+00 
1.037676e+00 
1.004349e+00 
9.716194e-01 
9.396595e-01 
9.085963e-01 
8.784839e-01 
8.492907e-01 
8.209214e-01 
7.932607e-01 
7.661940e-01 
7.396281e-01 
7.135060e-01 
6.878130e-01 
6.625680e-01 
6.378130e-01 
6.136067e-01 
5.900179e-01 
5.671205e-01 
5.449915e-01 
5.237106e-01 
5.033623e-01 
4.840367e-01 
4.658290e-01 
4.488374e-01 
4.331582e-01 
4.188855e-01 
4.061251e-01 
3.949824e-01 
3.855445e-01 
3.778872e-01 
3.720728e-01 
3.681471e-01 
3.661351e-01 
3.660392e-01 
3.678399e-01 
3.714991e-01 
3.769665e-01 
3.841859e-01 
3.931009e-01 
4.036595e-01 
4.158171e-01 
4.295332e-01 
4.447527e-01 
4.614652e-01 
4.797187e-01 
4.996138e-01 
5.212952e-01 
5.449438e-01 
5.706874e-01 
5.984912e-01 
6.281402e-01 
6.593022e-01 
6.916734e-01 
7.249801e-01 
7.589815e-01 
7.934660e-01 
8.282542e-01 
8.632633e-01 
1.226059e+00 
1.191937e+00 
1.157383e+00 
1.122606e+00 
1.087781e+00 
1.053119e+00 
1.018817e+00 
9.850746e-01 
9.521046e-01 
9.200756e-01 
8.890709e-01 
8.590773e-01 
8.299712e-01 
8.015613e-01 
7.736997e-01 
7.462681e-01 
7.191964e-01 
6.924649e-01 
6.661037e-01 
6.401605e-01 
6.146909e-01 
5.897608e-01 
5.654411e-01 
5.418052e-01 
5.189285e-01 
4.968894e-01 
4.757711e-01 
4.556640e-01 
4.366677e-01 
4.188908e-01 
4.024468e-01 
3.874491e-01 
3.740219e-01 
3.622855e-01 
3.523344e-01 
3.442497e-01 
3.381011e-01 
3.339442e-01 
3.318145e-01 
3.317229e-01 
3.336533e-01 
3.375639e-01 
3.433926e-01 
3.510639e-01 
3.604967e-01 
3.716114e-01 
3.843359e-01 
3.986073e-01 
4.143499e-01 
4.315203e-01 
4.501331e-01 
4.702617e-01 
4.920355e-01 
5.156325e-01 
5.412440e-01 
5.690340e-01 
5.989363e-01 
6.305953e-01 
6.636438e-01 
6.977557e-01 
7.326490e-01 
7.680810e-01 
8.038382e-01 
8.398610e-01 
1.212002e+00 
1.177125e+00 
1.141760e+00 
1.106206e+00 
1.070683e+00 
1.035433e+00 
1.000674e+00 
9.666675e-01 
9.336366e-01 
9.017116e-01 
8.708960e-01 
8.410822e-01 
8.119760e-01 
7.833740e-01 
7.551374e-01 
7.271859e-01 
6.995058e-01 
6.721299e-01 
6.451102e-01 
6.184997e-01 
5.923509e-01 
5.667232e-01 
5.416812e-01 
5.172954e-01 
4.936425e-01 
4.708056e-01 
4.488744e-01 
4.279437e-01 
4.081176e-01 
3.895103e-01 
3.722457e-01 
3.564540e-01 
3.422829e-01 
3.298770e-01 
3.193487e-01 
3.107898e-01 
3.042763e-01 
2.998690e-01 
2.976095e-01 
2.975151e-01 
2.995744e-01 
3.037458e-01 
3.099604e-01 
3.181282e-01 
3.281460e-01 
3.399060e-01 
3.533047e-01 
3.682372e-01 
3.846108e-01 
4.023623e-01 
4.214701e-01 
4.419716e-01 
4.639748e-01 
4.876476e-01 
5.132039e-01 
5.408887e-01 
5.708373e-01 
6.028372e-01 
6.364518e-01 
6.712923e-01 
7.070215e-01 
7.433572e-01 
7.800581e-01 
8.170911e-01 
1.198176e+00 
1.162577e+00 
1.126421e+00 
1.090133e+00 
1.053980e+00 
1.018223e+00 
9.831574e-01 
9.490765e-01 
9.161741e-01 
8.845039e-01 
8.539362e-01 
8.241439e-01 
7.948563e-01 
7.659035e-01 
7.371741e-01 
7.086530e-01 
6.803724e-01 
6.523813e-01 
6.247314e-01 
5.974713e-01 
5.706468e-01 
5.443109e-01 
5.185238e-01 
4.933543e-01 
4.688805e-01 
4.451910e-01 
4.223835e-01 
4.005641e-01 
3.798463e-01 
3.603518e-01 
3.422109e-01 
3.255629e-01 
3.105740e-01 
2.974159e-01 
2.862286e-01 
2.771265e-01 
2.701999e-01 
2.655166e-01 
2.631215e-01 
2.630335e-01 
2.652414e-01 
2.697017e-01 
2.763394e-01 
2.850525e-01 
2.957193e-01 
3.082065e-01 
3.223790e-01 
3.381040e-01 
3.552531e-01 
3.737240e-01 
3.934633e-01 
4.144823e-01 
4.368615e-01 
4.607500e-01 
4.863595e-01 
5.139579e-01 
5.437887e-01 
5.759367e-01 
6.099921e-01 
6.454778e-01 
6.819878e-01 
7.191901e-01 
7.568044e-01 
7.948568e-01 
1.185091e+00 
1.148791e+00 
1.111865e+00 
1.074883e+00 
1.038161e+00 
1.002015e+00 
9.668181e-01 
9.328565e-01 
9.002424e-01 
8.688930e-01 
8.384348e-01 
8.085234e-01 
7.789422e-01 
7.495511e-01 
7.203127e-01 
6.912554e-01 
6.624238e-01 
6.338643e-01 
6.056205e-01 
5.777359e-01 
5.502528e-01 
5.232209e-01 
4.966975e-01 
4.707492e-01 
4.454535e-01 
4.208997e-01 
3.971889e-01 
3.744342e-01 
3.527601e-01 
3.323028e-01 
3.132090e-01 
2.956346e-01 
2.797633e-01 
2.657874e-01 
2.538714e-01 
2.441564e-01 
2.367568e-01 
2.317572e-01 
2.292099e-01 
2.291342e-01 
2.315141e-01 
2.362981e-01 
2.434006e-01 
2.527060e-01 
2.640744e-01 
2.773474e-01 
2.923593e-01 
3.089400e-01 
3.269302e-01 
3.462017e-01 
3.666714e-01 
3.883173e-01 
4.111899e-01 
4.354158e-01 
4.611921e-01 
4.887861e-01 
5.185011e-01 
5.506040e-01 
5.849325e-01 
6.209341e-01 
6.581255e-01 
6.961198e-01 
7.345798e-01 
7.736252e-01 
1.172571e+00 
1.135597e+00 
1.097932e+00 
1.060316e+00 
1.023110e+00 
9.867372e-01 
9.516086e-01 
9.179409e-01 
8.857050e-01 
8.545366e-01 
8.240257e-01 
7.938786e-01 
7.639213e-01 
7.340797e-01 
7.043686e-01 
6.748258e-01 
6.454896e-01 
6.163961e-01 
5.875805e-01 
5.590809e-01 
5.309409e-01 
5.032070e-01 
4.759359e-01 
4.491944e-01 
4.230598e-01 
3.976214e-01 
3.729815e-01 
3.492562e-01 
3.265762e-01 
3.050884e-01 
2.849559e-01 
2.663571e-01 
2.495051e-01 
2.346234e-01 
2.219014e-01 
2.115055e-01 
2.035755e-01 
1.982181e-01 
1.955001e-01 
1.954445e-01 
1.980296e-01 
2.031903e-01 
2.108231e-01 
2.207905e-01 
2.329229e-01 
2.470325e-01 
2.629334e-01 
2.804310e-01 
2.993372e-01 
3.194930e-01 
3.407844e-01 
3.631574e-01 
3.866320e-01 
4.113122e-01 
4.373776e-01 
4.650851e-01 
4.947519e-01 
5.267351e-01 
5.611782e-01 
5.975729e-01 
6.353513e-01 
6.740681e-01 
7.133142e-01 
7.533136e-01 
1.160671e+00 
1.123052e+00 
1.084686e+00 
1.046504e+00 
1.008944e+00 
9.725321e-01 
9.376643e-01 
9.044130e-01 
8.724383e-01 
8.412832e-01 
8.106000e-01 
7.801517e-01 
7.498099e-01 
7.195653e-01 
6.894419e-01 
6.594669e-01 
6.296663e-01 
6.000668e-01 
5.706987e-01 
5.415974e-01 
5.128051e-01 
4.843719e-01 
4.563505e-01 
4.288058e-01 
4.018150e-01 
3.754678e-01 
3.498684e-01 
3.251363e-01 
3.014080e-01 
2.788381e-01 
2.576012e-01 
2.378930e-01 
2.199555e-01 
2.040523e-01 
1.904166e-01 
1.792478e-01 
1.707157e-01 
1.649525e-01 
1.620429e-01 
1.620166e-01 
1.648459e-01 
1.704477e-01 
1.786902e-01 
1.893925e-01 
2.023532e-01 
2.173669e-01 
2.342228e-01 
2.527029e-01 
2.725937e-01 
2.937066e-01 
3.158970e-01 
3.390801e-01 
3.632456e-01 
3.884705e-01 
4.149196e-01 
4.428400e-01 
4.725499e-01 
5.044265e-01 
5.388372e-01 
5.754987e-01 
6.137621e-01 
6.531261e-01 
6.930929e-01 
7.340144e-01 
1.149446e+00 
1.111210e+00 
1.072194e+00 
1.033526e+00 
9.957739e-01 
9.595211e-01 
9.250721e-01 
8.921816e-01 
8.603025e-01 
8.290459e-01 
7.981264e-01 
7.673601e-01 
7.366771e-01 
7.060845e-01 
6.755962e-01 
6.452257e-01 
6.149895e-01 
5.849092e-01 
5.550126e-01 
5.253338e-01 
4.959132e-01 
4.667983e-01 
4.380446e-01 
4.097098e-01 
3.818676e-01 
3.546052e-01 
3.280258e-01 
3.022502e-01 
2.774205e-01 
2.537016e-01 
2.312822e-01 
2.103764e-01 
1.912530e-01 
1.742134e-01 
1.595399e-01 
1.474877e-01 
1.382654e-01 
1.320380e-01 
1.289127e-01 
1.289276e-01 
1.320471e-01 
1.381621e-01 
1.470897e-01 
1.586101e-01 
1.724901e-01 
1.884931e-01 
2.063803e-01 
2.259108e-01 
2.468482e-01 
2.689783e-01 
2.921284e-01 
3.161854e-01 
3.411114e-01 
3.669569e-01 
3.938671e-01 
4.220764e-01 
4.519039e-01 
4.837385e-01 
5.180281e-01 
5.548341e-01 
5.934765e-01 
6.334058e-01 
6.740221e-01 
7.158266e-01 
1.138949e+00 
1.100126e+00 
1.060521e+00 
1.021484e+00 
9.837247e-01 
9.478078e-01 
9.138026e-01 
8.811074e-01 
8.492170e-01 
8.178001e-01 
7.866397e-01 
7.555856e-01 
7.246031e-01 
6.936937e-01 
6.628597e-01 
6.321083e-01 
6.014541e-01 
5.709180e-01 
5.405260e-01 
5.103087e-01 
4.803017e-01 
4.505462e-01 
4.210915e-01 
3.919971e-01 
3.633272e-01 
3.351643e-01 
3.076084e-01 
2.807780e-01 
2.548156e-01 
2.298920e-01 
2.062100e-01 
1.840054e-01 
1.635793e-01 
1.452760e-01 
1.294292e-01 
1.163574e-01 
1.063373e-01 
9.957626e-02 
9.620817e-02 
9.627959e-02 
9.973873e-02 
1.064343e-01 
1.161419e-01 
1.285916e-01 
1.435006e-01 
1.605907e-01 
1.795915e-01 
2.002383e-01 
2.222750e-01 
2.454665e-01 
2.696174e-01 
2.945909e-01 
3.203252e-01 
3.468470e-01 
3.742796e-01 
4.028426e-01 
4.328492e-01 
4.646964e-01 
4.988686e-01 
5.356932e-01 
5.746066e-01 
6.150150e-01 
6.562038e-01 
6.988475e-01 
1.129232e+00 
1.089853e+00 
1.049735e+00 
1.010471e+00 
9.728858e-01 
9.374310e-01 
9.037264e-01 
8.711085e-01 
8.391395e-01 
8.075561e-01 
7.761818e-01 
7.448882e-01 
7.136497e-01 
6.824558e-01 
6.513020e-01 