# vtk DataFile Version 2.0 
Quadtree Mesh 
ASCII 
DATASET UNSTRUCTURED_GRID 
POINTS 1024 double 
-1.000000e+00 -1.000000e+00 0.000000e+00
-9.354839e-01 -1.000000e+00 0.000000e+00
-8.709677e-01 -1.000000e+00 0.000000e+00
-8.064516e-01 -1.000000e+00 0.000000e+00
-7.419355e-01 -1.000000e+00 0.000000e+00
-6.774194e-01 -1.000000e+00 0.000000e+00
-6.129032e-01 -1.000000e+00 0.000000e+00
-5.483871e-01 -1.000000e+00 0.000000e+00
-4.838710e-01 -1.000000e+00 0.000000e+00
-4.193548e-01 -1.000000e+00 0.000000e+00
-3.548387e-01 -1.000000e+00 0.000000e+00
-2.903226e-01 -1.000000e+00 0.000000e+00
-2.258065e-01 -1.000000e+00 0.000000e+00
-1.612903e-01 -1.000000e+00 0.000000e+00
-9.677419e-02 -1.000000e+00 0.000000e+00
-3.225806e-02 -1.000000e+00 0.000000e+00
3.225806e-02 -1.000000e+00 0.000000e+00
9.677419e-02 -1.000000e+00 0.000000e+00
1.612903e-01 -1.000000e+00 0.000000e+00
2.258065e-01 -1.000000e+00 0.000000e+00
2.903226e-01 -1.000000e+00 0.000000e+00
3.548387e-01 -1.000000e+00 0.000000e+00
4.193548e-01 -1.000000e+00 0.000000e+00
4.838710e-01 -1.000000e+00 0.000000e+00
5.483871e-01 -1.000000e+00 0.000000e+00
6.129032e-01 -1.000000e+00 0.000000e+00
6.774194e-01 -1.000000e+00 0.000000e+00
7.419355e-01 -1.000000e+00 0.000000e+00
8.064516e-01 -1.000000e+00 0.000000e+00
8.709677e-01 -1.000000e+00 0.000000e+00
9.354839e-01 -1.000000e+00 0.000000e+00
1.000000e+00 -1.000000e+00 0.000000e+00
-1.000000e+00 -9.354839e-01 0.000000e+00
-9.354839e-01 -9.354839e-01 0.000000e+00
-8.709677e-01 -9.354839e-01 0.000000e+00
-8.064516e-01 -9.354839e-01 0.000000e+00
-7.419355e-01 -9.354839e-01 0.000000e+00
-6.774194e-01 -9.354839e-01 0.000000e+00
-6.129032e-01 -9.354839e-01 0.000000e+00
-5.483871e-01 -9.354839e-01 0.000000e+00
-4.838710e-01 -9.354839e-01 0.000000e+00
-4.193548e-01 -9.354839e-01 0.000000e+00
-3.548387e-01 -9.354839e-01 0.000000e+00
-2.903226e-01 -9.354839e-01 0.000000e+00
-2.258065e-01 -9.354839e-01 0.000000e+00
-1.612903e-01 -9.354839e-01 0.000000e+00
-9.677419e-02 -9.354839e-01 0.000000e+00
-3.225806e-02 -9.354839e-01 0.000000e+00
3.225806e-02 -9.354839e-01 0.000000e+00
9.677419e-02 -9.354839e-01 0.000000e+00
1.612903e-01 -9.354839e-01 0.000000e+00
2.258065e-01 -9.354839e-01 0.000000e+00
2.903226e-01 -9.354839e-01 0.000000e+00
3.548387e-01 -9.354839e-01 0.000000e+00
4.193548e-01 -9.354839e-01 0.000000e+00
4.838710e-01 -9.354839e-01 0.000000e+00
5.483871e-01 -9.354839e-01 0.000000e+00
6.129032e-01 -9.354839e-01 0.000000e+00
6.774194e-01 -9.354839e-01 0.000000e+00
7.419355e-01 -9.354839e-01 0.000000e+00
8.064516e-01 -9.354839e-01 0.000000e+00
8.709677e-01 -9.354839e-01 0.000000e+00
9.354839e-01 -9.354839e-01 0.000000e+00
1.000000e+00 -9.354839e-01 0.000000e+00
-1.000000e+00 -8.709677e-01 0.000000e+00
-9.354839e-01 -8.709677e-01 0.000000e+00
-8.709677e-01 -8.709677e-01 0.000000e+00
-8.064516e-01 -8.709677e-01 0.000000e+00
-7.419355e-01 -8.709677e-01 0.000000e+00
-6.774194e-01 -8.709677e-01 0.000000e+00
-6.129032e-01 -8.709677e-01 0.000000e+00
-5.483871e-01 -8.709677e-01 0.000000e+00
-4.838710e-01 -8.709677e-01 0.000000e+00
-4.193548e-01 -8.709677e-01 0.000000e+00
-3.548387e-01 -8.709677e-01 0.000000e+00
-2.903226e-01 -8.709677e-01 0.000000e+00
-2.258065e-01 -8.709677e-01 0.000000e+00
-1.612903e-01 -8.709677e-01 0.000000e+00
-9.677419e-02 -8.709677e-01 0.000000e+00
-3.225806e-02 -8.709677e-01 0.000000e+00
3.225806e-02 -8.709677e-01 0.000000e+00
9.677419e-02 -8.709677e-01 0.000000e+00
1.612903e-01 -8.709677e-01 0.000000e+00
2.258065e-01 -8.709677e-01 0.000000e+00
2.903226e-01 -8.709677e-01 0.000000e+00
3.548387e-01 -8.709677e-01 0.000000e+00
4.193548e-01 -8.709677e-01 0.000000e+00
4.838710e-01 -8.709677e-01 0.000000e+00
5.483871e-01 -8.709677e-01 0.000000e+00
6.129032e-01 -8.709677e-01 0.000000e+00
6.774194e-01 -8.709677e-01 0.000000e+00
7.419355e-01 -8.709677e-01 0.000000e+00
8.064516e-01 -8.709677e-01 0.000000e+00
8.709677e-01 -8.709677e-01 0.000000e+00
9.354839e-01 -8.709677e-01 0.000000e+00
1.000000e+00 -8.709677e-01 0.000000e+00
-1.000000e+00 -8.064516e-01 0.000000e+00
-9.354839e-01 -8.064516e-01 0.000000e+00
-8.709677e-01 -8.064516e-01 0.000000e+00
-8.064516e-01 -8.064516e-01 0.000000e+00
-7.419355e-01 -8.064516e-01 0.000000e+00
-6.774194e-01 -8.064516e-01 0.000000e+00
-6.129032e-01 -8.064516e-01 0.000000e+00
-5.483871e-01 -8.064516e-01 0.000000e+00
-4.838710e-01 -8.064516e-01 0.000000e+00
-4.193548e-01 -8.064516e-01 0.000000e+00
-3.548387e-01 -8.064516e-01 0.000000e+00
-2.903226e-01 -8.064516e-01 0.000000e+00
-2.258065e-01 -8.064516e-01 0.000000e+00
-1.612903e-01 -8.064516e-01 0.000000e+00
-9.677419e-02 -8.064516e-01 0.000000e+00
-3.225806e-02 -8.064516e-01 0.000000e+00
3.225806e-02 -8.064516e-01 0.000000e+00
9.677419e-02 -8.064516e-01 0.000000e+00
1.612903e-01 -8.064516e-01 0.000000e+00
2.258065e-01 -8.064516e-01 0.000000e+00
2.903226e-01 -8.064516e-01 0.000000e+00
3.548387e-01 -8.064516e-01 0.000000e+00
4.193548e-01 -8.064516e-01 0.000000e+00
4.838710e-01 -8.064516e-01 0.000000e+00
5.483871e-01 -8.064516e-01 0.000000e+00
6.129032e-01 -8.064516e-01 0.000000e+00
6.774194e-01 -8.064516e-01 0.000000e+00
7.419355e-01 -8.064516e-01 0.000000e+00
8.064516e-01 -8.064516e-01 0.000000e+00
8.709677e-01 -8.064516e-01 0.000000e+00
9.354839e-01 -8.064516e-01 0.000000e+00
1.000000e+00 -8.064516e-01 0.000000e+00
-1.000000e+00 -7.419355e-01 0.000000e+00
-9.354839e-01 -7.419355e-01 0.000000e+00
-8.709677e-01 -7.419355e-01 0.000000e+00
-8.064516e-01 -7.419355e-01 0.000000e+00
-7.419355e-01 -7.419355e-01 0.000000e+00
-6.774194e-01 -7.419355e-01 0.000000e+00
-6.129032e-01 -7.419355e-01 0.000000e+00
-5.483871e-01 -7.419355e-01 0.000000e+00
-4.838710e-01 -7.419355e-01 0.000000e+00
-4.193548e-01 -7.419355e-01 0.000000e+00
-3.548387e-01 -7.419355e-01 0.000000e+00
-2.903226e-01 -7.419355e-01 0.000000e+00
-2.258065e-01 -7.419355e-01 0.000000e+00
-1.612903e-01 -7.419355e-01 0.000000e+00
-9.677419e-02 -7.419355e-01 0.000000e+00
-3.225806e-02 -7.419355e-01 0.000000e+00
3.225806e-02 -7.419355e-01 0.000000e+00
9.677419e-02 -7.419355e-01 0.000000e+00
1.612903e-01 -7.419355e-01 0.000000e+00
2.258065e-01 -7.419355e-01 0.000000e+00
2.903226e-01 -7.419355e-01 0.000000e+00
3.548387e-01 -7.419355e-01 0.000000e+00
4.193548e-01 -7.419355e-01 0.000000e+00
4.838710e-01 -7.419355e-01 0.000000e+00
5.483871e-01 -7.419355e-01 0.000000e+00
6.129032e-01 -7.419355e-01 0.000000e+00
6.774194e-01 -7.419355e-01 0.000000e+00
7.419355e-01 -7.419355e-01 0.000000e+00
8.064516e-01 -7.419355e-01 0.000000e+00
8.709677e-01 -7.419355e-01 0.000000e+00
9.354839e-01 -7.419355e-01 0.000000e+00
1.000000e+00 -7.419355e-01 0.000000e+00
-1.000000e+00 -6.774194e-01 0.000000e+00
-9.354839e-01 -6.774194e-01 0.000000e+00
-8.709677e-01 -6.774194e-01 0.000000e+00
-8.064516e-01 -6.774194e-01 0.000000e+00
-7.419355e-01 -6.774194e-01 0.000000e+00
-6.774194e-01 -6.774194e-01 0.000000e+00
-6.129032e-01 -6.774194e-01 0.000000e+00
-5.483871e-01 -6.774194e-01 0.000000e+00
-4.838710e-01 -6.774194e-01 0.000000e+00
-4.193548e-01 -6.774194e-01 0.000000e+00
-3.548387e-01 -6.774194e-01 0.000000e+00
-2.903226e-01 -6.774194e-01 0.000000e+00
-2.258065e-01 -6.774194e-01 0.000000e+00
-1.612903e-01 -6.774194e-01 0.000000e+00
-9.677419e-02 -6.774194e-01 0.000000e+00
-3.225806e-02 -6.774194e-01 0.000000e+00
3.225806e-02 -6.774194e-01 0.000000e+00
9.677419e-02 -6.774194e-01 0.000000e+00
1.612903e-01 -6.774194e-01 0.000000e+00
2.258065e-01 -6.774194e-01 0.000000e+00
2.903226e-01 -6.774194e-01 0.000000e+00
3.548387e-01 -6.774194e-01 0.000000e+00
4.193548e-01 -6.774194e-01 0.000000e+00
4.838710e-01 -6.774194e-01 0.000000e+00
5.483871e-01 -6.774194e-01 0.000000e+00
6.129032e-01 -6.774194e-01 0.000000e+00
6.774194e-01 -6.774194e-01 0.000000e+00
7.419355e-01 -6.774194e-01 0.000000e+00
8.064516e-01 -6.774194e-01 0.000000e+00
8.709677e-01 -6.774194e-01 0.000000e+00
9.354839e-01 -6.774194e-01 0.000000e+00
1.000000e+00 -6.774194e-01 0.000000e+00
-1.000000e+00 -6.129032e-01 0.000000e+00
-9.354839e-01 -6.129032e-01 0.000000e+00
-8.709677e-01 -6.129032e-01 0.000000e+00
-8.064516e-01 -6.129032e-01 0.000000e+00
-7.419355e-01 -6.129032e-01 0.000000e+00
-6.774194e-01 -6.129032e-01 0.000000e+00
-6.129032e-01 -6.129032e-01 0.000000e+00
-5.483871e-01 -6.129032e-01 0.000000e+00
-4.838710e-01 -6.129032e-01 0.000000e+00
-4.193548e-01 -6.129032e-01 0.000000e+00
-3.548387e-01 -6.129032e-01 0.000000e+00
-2.903226e-01 -6.129032e-01 0.000000e+00
-2.258065e-01 -6.129032e-01 0.000000e+00
-1.612903e-01 -6.129032e-01 0.000000e+00
-9.677419e-02 -6.129032e-01 0.000000e+00
-3.225806e-02 -6.129032e-01 0.000000e+00
3.225806e-02 -6.129032e-01 0.000000e+00
9.677419e-02 -6.129032e-01 0.000000e+00
1.612903e-01 -6.129032e-01 0.000000e+00
2.258065e-01 -6.129032e-01 0.000000e+00
2.903226e-01 -6.129032e-01 0.000000e+00
3.548387e-01 -6.129032e-01 0.000000e+00
4.193548e-01 -6.129032e-01 0.000000e+00
4.838710e-01 -6.129032e-01 0.000000e+00
5.483871e-01 -6.129032e-01 0.000000e+00
6.129032e-01 -6.129032e-01 0.000000e+00
6.774194e-01 -6.129032e-01 0.000000e+00
7.419355e-01 -6.129032e-01 0.000000e+00
8.064516e-01 -6.129032e-01 0.000000e+00
8.709677e-01 -6.129032e-01 0.000000e+00
9.354839e-01 -6.129032e-01 0.000000e+00
1.000000e+00 -6.129032e-01 0.000000e+00
-1.000000e+00 -5.483871e-01 0.000000e+00
-9.354839e-01 -5.483871e-01 0.000000e+00
-8.709677e-01 -5.483871e-01 0.000000e+00
-8.064516e-01 -5.483871e-01 0.000000e+00
-7.419355e-01 -5.483871e-01 0.000000e+00
-6.774194e-01 -5.483871e-01 0.000000e+00
-6.129032e-01 -5.483871e-01 0.000000e+00
-5.483871e-01 -5.483871e-01 0.000000e+00
-4.838710e-01 -5.483871e-01 0.000000e+00
-4.193548e-01 -5.483871e-01 0.000000e+00
-3.548387e-01 -5.483871e-01 0.000000e+00
-2.903226e-01 -5.483871e-01 0.000000e+00
-2.258065e-01 -5.483871e-01 0.000000e+00
-1.612903e-01 -5.483871e-01 0.000000e+00
-9.677419e-02 -5.483871e-01 0.000000e+00
-3.225806e-02 -5.483871e-01 0.000000e+00
3.225806e-02 -5.483871e-01 0.000000e+00
9.677419e-02 -5.483871e-01 0.000000e+00
1.612903e-01 -5.483871e-01 0.000000e+00
2.258065e-01 -5.483871e-01 0.000000e+00
[...]
POINT_DATA 1024 
SCALARS value_at_nodes double 1 
LOOKUP_TABLE default 
2.553022e-01 
2.064050e-01 
1.610918e-01 
1.197180e-01 
8.288705e-02 
5.153366e-02 
2.524057e-02 
2.813490e-03 
1.439316e-02 
2.803767e-02 
3.901813e-02 
4.790294e-02 
5.504450e-02 
6.065883e-02 
6.495271e-02 
6.804978e-02 
6.997085e-02 
7.064243e-02 
6.991843e-02 
6.759697e-02 
6.343011e-02 
5.713408e-02 
4.840981e-02 
3.697710e-02 
2.260717e-02 
5.126088e-03 
1.541928e-02 
3.894096e-02 
6.534142e-02 
9.450156e-02 
1.260342e-01 
1.578355e-01 
2.013181e-01 
1.522646e-01 
1.080189e-01 
6.901921e-02 
3.567850e-02 
9.236587e-03 
1.117885e-02 
2.684326e-02 
3.917147e-02 
4.910536e-02 
5.720102e-02 
6.378552e-02 
6.913464e-02 
7.351726e-02 
7.713481e-02 
8.010029e-02 
8.239410e-02 
8.388191e-02 
8.438112e-02 
8.365413e-02 
8.141361e-02 
7.733035e-02 
7.104758e-02 
6.220712e-02 
5.048893e-02 
3.560402e-02 
1.743848e-02 
3.941906e-03 
2.841732e-02 
5.582814e-02 
8.581467e-02 
1.168210e-01 
1.499477e-01 
1.029624e-01 
6.257375e-02 
2.918359e-02 
2.903360e-03 
1.727226e-02 
3.234556e-02 
4.379980e-02 
5.285594e-02 
6.013638e-02 
6.604488e-02 
7.087079e-02 
7.491772e-02 
7.843199e-02 
8.158309e-02 
8.446324e-02 
8.706360e-02 
8.927669e-02 
9.092630e-02 
9.175945e-02 
9.145629e-02 
8.964698e-02 
8.591936e-02 
7.985807e-02 
7.105977e-02 
5.915988e-02 
4.377902e-02 
2.494464e-02 
2.781495e-03 
2.251375e-02 
5.059689e-02 
8.034797e-02 
1.033087e-01 
6.178206e-02 
2.816308e-02 
1.615516e-03 
1.868074e-02 
3.364726e-02 
4.448746e-02 
5.272424e-02 
5.918243e-02 
6.436445e-02 
6.856071e-02 
7.210094e-02 
7.525370e-02 
7.821007e-02 
8.109148e-02 
8.395839e-02 
8.679772e-02 
8.953016e-02 
9.202053e-02 
9.405510e-02 
9.535539e-02 
9.553862e-02 
9.413773e-02 
9.065933e-02 
8.462567e-02 
7.563944e-02 
6.323799e-02 
4.717548e-02 
2.753765e-02 
4.557711e-03 
2.139129e-02 
4.937070e-02 
6.770352e-02 
3.258768e-02 
4.989346e-03 
1.602208e-02 
3.132763e-02 
4.206137e-02 
4.962049e-02 
5.531253e-02 
5.974721e-02 
6.324177e-02 
6.614553e-02 
6.873640e-02 
7.122519e-02 
7.376190e-02 
7.644364e-02 
7.932249e-02 
8.238976e-02 
8.556702e-02 
8.872686e-02 
9.168089e-02 
9.419278e-02 
9.598239e-02 
9.658259e-02 
9.545425e-02 
9.203823e-02 
8.586122e-02 
7.644943e-02 
6.331062e-02 
4.639773e-02 
2.588197e-02 
2.149736e-03 
2.392460e-02 
4.037894e-02 
1.120027e-02 
1.092125e-02 
2.707642e-02 
3.818185e-02 
4.556039e-02 
5.063839e-02 
5.440801e-02 
5.726891e-02 
5.951662e-02 
6.145534e-02 
6.333682e-02 
6.534643e-02 
6.760620e-02 
7.018584e-02 
7.311624e-02 
7.640171e-02 
7.998362e-02 
8.373754e-02 
8.746964e-02 
9.092866e-02 
9.390200e-02 
9.600656e-02 
9.673606e-02 
9.551929e-02 
9.182143e-02 
8.518852e-02 
7.495562e-02 
6.094212e-02 
4.315929e-02 
2.185771e-02 
2.227076e-03 
2.042912e-02 
3.352219e-03 
2.071512e-02 
3.274233e-02 
4.040254e-02 
4.517203e-02 
4.830790e-02 
5.049116e-02 
5.205938e-02 
5.332255e-02 
5.455765e-02 
5.597800e-02 
5.772690e-02 
5.988944e-02 
6.250184e-02 
6.556004e-02 
6.909101e-02 
7.308871e-02 
7.741640e-02 
8.185319e-02 
8.612899e-02 
9.003887e-02 
9.327059e-02 
9.537467e-02 
9.581649e-02 
9.403764e-02 
8.960323e-02 
8.181243e-02 
7.034856e-02 
5.519199e-02 
3.640307e-02 
1.463133e-02 
6.557863e-03 
1.254249e-02 
2.582754e-02 
3.437547e-02 
3.920570e-02 
4.186215e-02 
4.336846e-02 
4.428153e-02 
4.495315e-02 
4.569241e-02 
4.670892e-02 
4.812078e-02 
4.998177e-02 
5.232897e-02 
5.517040e-02 
5.847138e-02 
6.227546e-02 
6.663032e-02 
7.139181e-02 
7.632476e-02 
8.117296e-02 
8.575120e-02 
8.977308e-02 
9.285069e-02 
9.450854e-02 
9.420077e-02 
9.149203e-02 
8.574178e-02 
7.647461e-02 
6.362420e-02 
4.709984e-02 
2.751204e-02 
2.229322e-03 
1.736998e-02 
2.718533e-02 
3.270915e-02 
3.517363e-02 
3.618430e-02 
3.661331e-02 
3.688016e-02 
3.732347e-02 
3.814531e-02 
3.942108e-02 
4.116297e-02 
4.333558e-02 
4.593028e-02 
4.897541e-02 
5.250181e-02 
5.654184e-02 
6.108982e-02 
6.600354e-02 
7.109377e-02 
7.617573e-02 
8.103592e-02 
8.542139e-02 
8.901203e-02 
9.140486e-02 
9.210108e-02 
9.065016e-02 
8.652535e-02 
7.911009e-02 
6.832621e-02 
5.395165e-02 
3.652105e-02 
7.490586e-03 
1.916878e-02 
2.590767e-02 
2.900769e-02 
2.996556e-02 
3.020612e-02 
3.030912e-02 
3.061221e-02 
3.132094e-02 
3.248158e-02 
3.404859e-02 
3.596054e-02 
3.819983e-02 
4.082319e-02 
4.395129e-02 
4.771545e-02 
5.222273e-02 
5.742344e-02 
6.301908e-02 
6.855004e-02 
7.371484e-02 
7.851406e-02 
8.277945e-02 
8.633029e-02 
8.889709e-02 
9.007597e-02 
8.941523e-02 
8.647376e-02 
8.052601e-02 
7.148377e-02 
5.897838e-02 
4.344793e-02 
9.573513e-03 
1.838210e-02 
2.277524e-02 
2.444993e-02 
2.478801e-02 
2.485470e-02 
2.500665e-02 
2.549423e-02 
2.640744e-02 
2.768174e-02 
2.922194e-02 
3.097540e-02 
3.297667e-02 
3.536732e-02 
3.838547e-02 
4.231216e-02 
4.745916e-02 
5.382990e-02 
6.089302e-02 
6.760520e-02 
7.318016e-02 
7.769317e-02 
8.128795e-02 
8.413539e-02 
8.622850e-02 
8.731642e-02 
8.696235e-02 
8.476844e-02 
7.993249e-02 
7.234245e-02 
6.150759e-02 
4.774676e-02 
9.986500e-03 
1.648033e-02 
1.934500e-02 
2.028272e-02 
2.034553e-02 
2.030111e-02 
2.044298e-02 
2.096662e-02 
2.189937e-02 
2.308922e-02 
2.444263e-02 
2.593876e-02 
2.766092e-02 
2.981117e-02 
3.271068e-02 
3.678305e-02 
4.265293e-02 
5.060410e-02 
5.995325e-02 
6.878500e-02 
7.525839e-02 
7.922623e-02 
8.142178e-02 
8.272936e-02 
8.360571e-02 
8.400097e-02 
8.348794e-02 
8.163570e-02 
7.758912e-02 
7.117089e-02 
6.179534e-02 
4.964464e-02 
9.054389e-03 
1.388335e-02 
1.580103e-02 
1.630328e-02 
1.613894e-02 
1.593428e-02 
1.602532e-02 
1.656902e-02 
1.749252e-02 
1.858229e-02 
1.975545e-02 
2.101335e-02 
2.245564e-02 
2.428557e-02 
2.687780e-02 
3.087274e-02 
3.732743e-02 
4.731952e-02 
6.013969e-02 
7.243174e-02 
8.030113e-02 
8.304934e-02 
8.265345e-02 
8.132229e-02 
8.017319e-02 
7.931676e-02 
7.826258e-02 
7.644155e-02 
7.295315e-02 
6.750455e-02 
5.944468e-02 
4.881659e-02 
7.650704e-03 
1.126920e-02 
1.257311e-02 
1.278807e-02 
1.245389e-02 
1.215985e-02 
1.232499e-02 
1.298218e-02 
1.391307e-02 
1.492183e-02 
1.595014e-02 
1.700829e-02 
1.817103e-02 
1.956440e-02 
2.149715e-02 
2.489924e-02 
3.179480e-02 
4.503885e-02 
6.391519e-02 
8.234205e-02 
9.196666e-02 
9.157015e-02 
8.648571e-02 
8.115593e-02 
7.724304e-02 
7.473909e-02 
7.290984e-02 
7.093253e-02 
6.782278e-02 
6.314652e-02 
5.619278e-02 
4.688581e-02 
5.961713e-03 
8.722889e-03 
9.642240e-03 
9.685822e-03 
9.281621e-03 
9.024913e-03 
9.364704e-03 
1.007074e-02 
1.091557e-02 
1.178203e-02 
1.263070e-02 
1.346362e-02 
1.430315e-02 
1.517132e-02 
1.605077e-02 
1.795026e-02 
2.473973e-02 
4.220161e-02 
7.084691e-02 
1.008336e-01 
1.115058e-01 
1.028851e-01 
9.020224e-02 
7.992880e-02 
7.308098e-02 
6.896526e-02 
6.640966e-02 
6.428801e-02 
6.151565e-02 
5.753011e-02 
5.157381e-02 
4.349161e-02 
4.183870e-03 
6.344275e-03 
6.995497e-03 
6.941233e-03 
6.518233e-03 
6.380923e-03 
6.827853e-03 
7.475362e-03 
8.190613e-03 
8.937631e-03 
9.677971e-03 
1.036490e-02 
1.096538e-02 
1.147654e-02 
1.155645e-02 
1.091693e-02 
1.628138e-02 
3.755952e-02 
7.672291e-02 
1.298635e-01 
1.365469e-01 
1.103197e-01 
8.956110e-02 
7.545149e-02 
6.665021e-02 
6.156472e-02 
5.864831e-02 
5.657436e-02 
5.420324e-02 
5.088934e-02 
4.586631e-02 
3.894034e-02 
2.649165e-03 
4.299289e-03 
4.823266e-03 
4.684638e-03 
4.302156e-03 
4.274648e-03 
4.722850e-03 
5.289458e-03 
5.925442e-03 
6.640028e-03 
7.296044e-03 
7.806285e-03 
8.198619e-03 
8.462256e-03 
8.216076e-03 
7.220731e-03 
1.109643e-02 
3.058259e-02 
6.825934e-02 
1.205084e-01 
1.269439e-01 
1.009428e-01 
8.039988e-02 
6.637407e-02 
5.758575e-02 
5.251987e-02 
4.971715e-02 
4.788203e-02 
4.598419e-02 
4.326363e-02 
3.923088e-02 
3.319687e-02 
1.109061e-03 
2.532935e-03 
2.937772e-03 
2.791877e-03 
2.464932e-03 
2.529734e-03 
2.964607e-03 
3.453969e-03 
4.064179e-03 
4.779624e-03 
5.360627e-03 
5.803667e-03 
6.183782e-03 
6.448044e-03 
6.489062e-03 
6.932377e-03 
1.117034e-02 
2.539256e-02 
4.941879e-02 
7.603966e-02 
8.535327e-02 
7.666927e-02 
6.416011e-02 
5.389578e-02 
4.697282e-02 
4.289418e-02 
4.069352e-02 
3.934268e-02 
3.789983e-02 
3.588020e-02 
3.266166e-02 
2.736822e-02 
2.571131e-04 
9.848761e-04 
1.341254e-03 
1.225983e-03 
9.569886e-04 
1.085108e-03 
1.486953e-03 
1.875973e-03 
2.455926e-03 
3.145447e-03 
3.640931e-03 
4.063586e-03 
4.515425e-03 
4.890908e-03 
5.348647e-03 
6.613867e-03 
1.074522e-02 
1.989315e-02 
3.319240e-02 
4.719818e-02 
5.419573e-02 
5.272284e-02 
4.691744e-02 
4.074281e-02 
3.605487e-02 
3.319839e-02 
3.174291e-02 
3.087106e-02 
2.995060e-02 
2.853773e-02 
2.600831e-02 
2.132916e-02 
1.469655e-03 
3.100130e-04 
4.717338e-05 
3.661867e-05 
2.552476e-04 
7.758727e-05 
2.788064e-04 
5.662898e-04 
1.111759e-03 
1.727821e-03 
2.121468e-03 
2.540039e-03 
3.053672e-03 
3.568443e-03 
4.315427e-03 
5.908705e-03 
9.254044e-03 
1.470819e-02 
2.184710e-02 
2.955574e-02 
3.421534e-02 
3.481643e-02 
3.256263e-02 
2.940033e-02 
2.664802e-02 
2.481931e-02 
2.385294e-02 
2.331332e-02 
2.273711e-02 
2.171752e-02 
1.965748e-02 
1.549003e-02 
2.271564e-03 
1.106215e-03 
6.948737e-04 
7.288497e-04 
8.974747e-04 
6.690723e-04 
3.484171e-04 
1.204039e-04 
4.131213e-04 
9.554997e-04 
1.293099e-03 
1.720518e-03 
2.260047e-03 
2.834697e-03 
3.745480e-03 
5.342267e-03 
7.804664e-03 
1.103498e-02 
1.493475e-02 
1.925146e-02 
2.221706e-02 
2.312106e-02 
2.240235e-02 
2.092272e-02 
1.942914e-02 
1.838491e-02 
1.781798e-02 
1.749683e-02 
1.707654e-02 
1.617284e-02 
1.436355e-02 
1.068028e-02 
3.218758e-03 
2.010145e-03 
1.527051e-03 
1.504358e-03 
1.629282e-03 
1.369605e-03 
1.108176e-03 
9.333836e-04 
4.321367e-04 
6.897682e-06 
2.813027e-04 
6.627565e-04 
1.122288e-03 
1.639865e-03 
2.482152e-03 
3.776968e-03 
5.498135e-03 
7.541719e-03 
9.796799e-03 
1.226657e-02 
1.394292e-02 
1.478778e-02 
1.468947e-02 
1.408024e-02 
1.338262e-02 
1.287944e-02 
1.267561e-02 
1.260462e-02 
1.234926e-02 
1.155948e-02 
9.893008e-03 
6.639003e-03 
4.143341e-03 
2.838408e-03 
2.253767e-03 
2.159301e-03 
2.238922e-03 
1.957423e-03 
1.758103e-03 
1.629413e-03 
1.184302e-03 
8.506191e-04 
6.287948e-04 
2.957743e-04 
2.855370e-05 
4.367937e-04 
1.112486e-03 
2.005306e-03 
3.191479e-03 
4.588064e-03 
6.012293e-03 
7.473655e-03 
8.384104e-03 
9.037938e-03 
9.222620e-03 
9.065849e-03 
8.831642e-03 
8.671812e-03 
8.614182e-03 
8.557091e-03 
8.303938e-03 
7.530842e-03 
5.864324e-03 
2.881327e-03 
5.125464e-03 
3.657142e-03 
2.942822e-03 
2.757516e-03 
2.787855e-03 
2.490561e-03 
2.343548e-03 
2.252596e-03 
1.888959e-03 
1.674530e-03 
1.512853e-03 
1.227359e-03 
1.020101e-03 
7.512218e-04 
2.766374e-04 
3.006341e-04 
1.114377e-03 
2.055098e-03 
2.983310e-03 
3.923151e-03 
4.596681e-03 
5.097533e-03 
5.271879e-03 
5.385789e-03 
5.354602e-03 
5.347363e-03 
5.384091e-03 
5.347232e-03 
5.031562e-03 
4.169722e-03 
2.414673e-03 
5.139228e-04 
5.859827e-03 
4.124918e-03 
3.209116e-03 
2.879889e-03 
2.826247e-03 
2.488511e-03 
2.333200e-03 
2.266491e-03 
1.968562e-03 
1.829521e-03 
1.703561e-03 
1.448811e-03 
1.299919e-03 
1.080556e-03 
7.170937e-04 
3.320849e-04 
2.351286e-04 
8.544735e-04 
1.487538e-03 
2.159764e-03 
2.694411e-03 
3.104369e-03 
3.183445e-03 
3.319842e-03 
3.458101e-03 
3.541816e-03 
3.468860e-03 
3.278439e-03 
2.778998e-03 
1.703964e-03 
2.303996e-04 
3.350538e-03 
7.266285e-03 
5.234295e-03 
4.083460e-03 
3.582695e-03 
3.418328e-03 
3.021273e-03 
2.812556e-03 
2.780084e-03 
2.558330e-03 
2.500651e-03 
2.443788e-03 
2.268544e-03 
2.210124e-03 
2.058763e-03 
1.811597e-03 
1.578668e-03 
1.207938e-03 
8.543335e-04 
4.133369e-04 
8.836165e-05 
5.128822e-04 
8.644664e-04 
1.032769e-03 
1.169416e-03 
1.175768e-03 
1.210597e-03 
1.130945e-03 
8.155912e-04 
1.675065e-04 
1.098653e-03 
3.309217e-03 
6.784905e-03 
9.082797e-03 
6.702346e-03 
5.275775e-03 
4.568226e-03 
4.259232e-03 
3.776164e-03 
3.476424e-03 
3.446258e-03 
3.251138e-03 
3.217067e-03 
3.203299e-03 
3.088374e-03 
3.100073e-03 
3.005151e-03 
2.849837e-03 
2.714836e-03 
2.473884e-03 
2.267568e-03 
1.937423e-03 
1.558435e-03 
1.226561e-03 
9.203291e-04 
7.382661e-04 
6.049957e-04 
6.273495e-04 
7.835965e-04 
1.090107e-03 
1.603457e-03 
2.516843e-03 
4.120990e-03 
6.755922e-03 
1.073047e-02 
1.138103e-02 
8.569410e-03 
6.798197e-03 
5.832744e-03 
5.346125e-03 
4.780983e-03 
4.379492e-03 
4.332357e-03 
4.125016e-03 
4.061754e-03 
4.058099e-03 
3.965408e-03 
4.023155e-03 
3.975970e-03 
3.884801e-03 
3.794149e-03 
3.639020e-03 
3.527058e-03 
3.271115e-03 
3.000210e-03 
2.738989e-03 
2.486908e-03 
2.356123e-03 
2.298398e-03 
2.391998e-03 
2.615556e-03 
3.054718e-03 
3.817022e-03 
5.150401e-03 
7.304601e-03 
1.052929e-02 
1.512938e-02 
1.368044e-02 
1.029910e-02 
8.050326e-03 
6.719771e-03 
6.004496e-03 
5.364926e-03 
4.859147e-03 
4.779414e-03 
4.534450e-03 
4.383883e-03 
4.330488e-03 
4.173066e-03 
4.203034e-03 
4.146940e-03 
4.089925e-03 
4.051101e-03 
3.961593e-03 
3.884658e-03 
3.684349e-03 
3.494614e-03 
3.289712e-03 
3.117315e-03 
3.085575e-03 
3.157380e-03 
3.406020e-03 
3.825692e-03 
4.535783e-03 
5.663337e-03 
7.492497e-03 
1.026015e-02 
1.418348e-02 
1.955470e-02 
1.718761e-02 
1.316037e-02 
1.033633e-02 
8.514803e-03 
7.410483e-03 
6.572998e-03 
5.986272e-03 
5.891361e-03 
5.653560e-03 
5.477185e-03 
5.442530e-03 
5.267732e-03 
5.305168e-03 
5.223289e-03 
5.184707e-03 
5.168396e-03 
5.169337e-03 
5.168989e-03 
5.064549e-03 
4.981890e-03 
4.874150e-03 
4.829409e-03 
4.933337e-03 
5.169032e-03 
5.626154e-03 
6.318628e-03 
7.391586e-03 
8.997667e-03 
1.141085e-02 
1.484281e-02 
1.948094e-02 
2.556459e-02 
2.166045e-02 
1.692786e-02 
1.346070e-02 
1.106186e-02 
9.459748e-03 
8.289084e-03 
7.487356e-03 
7.294505e-03 
7.010233e-03 
6.782846e-03 
6.749364e-03 
6.514902e-03 
6.540518e-03 
6.476802e-03 
6.474242e-03 
6.505572e-03 
6.552131e-03 
6.604823e-03 
6.589797e-03 
6.624927e-03 
6.649239e-03 
6.781681e-03 
7.076046e-03 
7.551653e-03 
8.312552e-03 
9.389459e-03 
1.094713e-02 
1.314521e-02 
1.622900e-02 
2.037772e-02 
2.575565e-02 
3.256856e-02 
2.715929e-02 
2.166925e-02 
1.751121e-02 
1.448678e-02 
1.232982e-02 
1.073278e-02 
9.564919e-03 
9.129312e-03 
8.661762e-03 
8.294949e-03 
8.247584e-03 
8.012179e-03 
8.079999e-03 
8.078199e-03 
8.113949e-03 
8.210807e-03 
8.283573e-03 
8.403698e-03 
8.477650e-03 
8.655291e-03 
8.843555e-03 
9.200447e-03 
9.743696e-03 
1.053930e-02 
1.169133e-02 
1.324680e-02 
1.538148e-02 
1.824250e-02 
2.204311e-02 
2.693210e-02 
3.305649e-02 
4.059475e-02 
