# vtk DataFile Version 2.0 
Quadtree Mesh 
ASCII 
DATASET UNSTRUCTURED_GRID 
POINTS 16384 double 
-1.000000e+00 -1.000000e+00 0.000000e+00
-9.842520e-01 -1.000000e+00 0.000000e+00
-9.685039e-01 -1.000000e+00 0.000000e+00
-9.527559e-01 -1.000000e+00 0.000000e+00
-9.370079e-01 -1.000000e+00 0.000000e+00
-9.212598e-01 -1.000000e+00 0.000000e+00
-9.055118e-01 -1.000000e+00 0.000000e+00
-8.897638e-01 -1.000000e+00 0.000000e+00
-8.740157e-01 -1.000000e+00 0.000000e+00
-8.582677e-01 -1.000000e+00 0.000000e+00
-8.425197e-01 -1.000000e+00 0.000000e+00
-8.267717e-01 -1.000000e+00 0.000000e+00
-8.110236e-01 -1.000000e+00 0.000000e+00
-7.952756e-01 -1.000000e+00 0.000000e+00
-7.795276e-01 -1.000000e+00 0.000000e+00
-7.637795e-01 -1.000000e+00 0.000000e+00
-7.480315e-01 -1.000000e+00 0.000000e+00
-7.322835e-01 -1.000000e+00 0.000000e+00
-7.165354e-01 -1.000000e+00 0.000000e+00
-7.007874e-01 -1.000000e+00 0.000000e+00
-6.850394e-01 -1.000000e+00 0.000000e+00
-6.692913e-01 -1.000000e+00 0.000000e+00
-6.535433e-01 -1.000000e+00 0.000000e+00
-6.377953e-01 -1.000000e+00 0.000000e+00
-6.220472e-01 -1.000000e+00 0.000000e+00
-6.062992e-01 -1.000000e+00 0.000000e+00
-5.905512e-01 -1.000000e+00 0.000000e+00
-5.748031e-01 -1.000000e+00 0.000000e+00
-5.590551e-01 -1.000000e+00 0.000000e+00
-5.433071e-01 -1.000000e+00 0.000000e+00
-5.275591e-01 -1.000000e+00 0.000000e+00
-5.118110e-01 -1.000000e+00 0.000000e+00
-4.960630e-01 -1.000000e+00 0.000000e+00
-4.803150e-01 -1.000000e+00 0.000000e+00
-4.645669e-01 -1.000000e+00 0.000000e+00
-4.488189e-01 -1.000000e+00 0.000000e+00
-4.330709e-01 -1.000000e+00 0.000000e+00
-4.173228e-01 -1.000000e+00 0.000000e+00
-4.015748e-01 -1.000000e+00 0.000000e+00
-3.858268e-01 -1.000000e+00 0.000000e+00
-3.700787e-01 -1.000000e+00 0.000000e+00
-3.543307e-01 -1.000000e+00 0.000000e+00
-3.385827e-01 -1.000000e+00 0.000000e+00
-3.228346e-01 -1.000000e+00 0.000000e+00
-3.070866e-01 -1.000000e+00 0.000000e+00
-2.913386e-01 -1.000000e+00 0.000000e+00
-2.755906e-01 -1.000000e+00 0.000000e+00
-2.598425e-01 -1.000000e+00 0.000000e+00
-2.440945e-01 -1.000000e+00 0.000000e+00
-2.283465e-01 -1.000000e+00 0.000000e+00
-2.125984e-01 -1.000000e+00 0.000000e+00
-1.968504e-01 -1.000000e+00 0.000000e+00
-1.811024e-01 -1.000000e+00 0.000000e+00
-1.653543e-01 -1.000000e+00 0.000000e+00
-1.496063e-01 -1.000000e+00 0.000000e+00
-1.338583e-01 -1.000000e+00 0.000000e+00
-1.181102e-01 -1.000000e+00 0.000000e+00
-1.023622e-01 -1.000000e+00 0.000000e+00
-8.661417e-02 -1.000000e+00 0.000000e+00
-7.086614e-02 -1.000000e+00 0.000000e+00
-5.511811e-02 -1.000000e+00 0.000000e+00
-3.937008e-02 -1.000000e+00 0.000000e+00
-2.362205e-02 -1.000000e+00 0.000000e+00
-7.874016e-03 -1.000000e+00 0.000000e+00
7.874016e-03 -1.000000e+00 0.000000e+00
2.362205e-02 -1.000000e+00 0.000000e+00
3.937008e-02 -1.000000e+00 0.000000e+00
5.511811e-02 -1.000000e+00 0.000000e+00
7.086614e-02 -1.000000e+00 0.000000e+00
8.661417e-02 -1.000000e+00 0.000000e+00
1.023622e-01 -1.000000e+00 0.000000e+00
1.181102e-01 -1.000000e+00 0.000000e+00
1.338583e-01 -1.000000e+00 0.000000e+00
1.496063e-01 -1.000000e+00 0.000000e+00
1.653543e-01 -1.000000e+00 0.000000e+00
1.811024e-01 -1.000000e+00 0.000000e+00
1.968504e-01 -1.000000e+00 0.000000e+00
2.125984e-01 -1.000000e+00 0.000000e+00
2.283465e-01 -1.000000e+00 0.000000e+00
2.440945e-01 -1.000000e+00 0.000000e+00
2.598425e-01 -1.000000e+00 0.000000e+00
2.755906e-01 -1.000000e+00 0.000000e+00
2.913386e-01 -1.000000e+00 0.000000e+00
3.070866e-01 -1.000000e+00 0.000000e+00
3.228346e-01 -1.000000e+00 0.000000e+00
3.385827e-01 -1.000000e+00 0.000000e+00
3.543307e-01 -1.000000e+00 0.000000e+00
3.700787e-01 -1.000000e+00 0.000000e+00
3.858268e-01 -1.000000e+00 0.000000e+00
4.015748e-01 -1.000000e+00 0.000000e+00
4.173228e-01 -1.000000e+00 0.000000e+00
4.330709e-01 -1.000000e+00 0.000000e+00
4.488189e-01 -1.000000e+00 0.000000e+00
4.645669e-01 -1.000000e+00 0.000000e+00
4.803150e-01 -1.000000e+00 0.000000e+00
4.960630e-01 -1.000000e+00 0.000000e+00
5.118110e-01 -1.000000e+00 0.000000e+00
5.275591e-01 -1.000000e+00 0.000000e+00
5.433071e-01 -1.000000e+00 0.000000e+00
5.590551e-01 -1.000000e+00 0.000000e+00
5.748031e-01 -1.000000e+00 0.000000e+00
5.905512e-01 -1.000000e+00 0.000000e+00
6.062992e-01 -1.000000e+00 0.000000e+00
6.220472e-01 -1.000000e+00 0.000000e+00
6.377953e-01 -1.000000e+00 0.000000e+00
6.535433e-01 -1.000000e+00 0.000000e+00
6.692913e-01 -1.000000e+00 0.000000e+00
6.850394e-01 -1.000000e+00 0.000000e+00
7.007874e-01 -1.000000e+00 0.000000e+00
7.165354e-01 -1.000000e+00 0.000000e+00
7.322835e-01 -1.000000e+00 0.000000e+00
7.480315e-01 -1.000000e+00 0.000000e+00
7.637795e-01 -1.000000e+00 0.000000e+00
7.795276e-01 -1.000000e+00 0.000000e+00
7.952756e-01 -1.000000e+00 0.000000e+00
8.110236e-01 -1.000000e+00 0.000000e+00
8.267717e-01 -1.000000e+00 0.000000e+00
8.425197e-01 -1.000000e+00 0.000000e+00
8.582677e-01 -1.000000e+00 0.000000e+00
8.740157e-01 -1.000000e+00 0.000000e+00
8.897638e-01 -1.000000e+00 0.000000e+00
9.055118e-01 -1.000000e+00 0.000000e+00
9.212598e-01 -1.000000e+00 0.000000e+00
9.370079e-01 -1.000000e+00 0.000000e+00
9.527559e-01 -1.000000e+00 0.000000e+00
9.685039e-01 -1.000000e+00 0.000000e+00
9.842520e-01 -1.000000e+00 0.000000e+00
1.000000e+00 -1.000000e+00 0.000000e+00
-1.000000e+00 -9.842520e-01 0.000000e+00
-9.842520e-01 -9.842520e-01 0.000000e+00
-9.685039e-01 -9.842520e-01 0.000000e+00
-9.527559e-01 -9.842520e-01 0.000000e+00
-9.370079e-01 -9.842520e-01 0.000000e+00
-9.212598e-01 -9.842520e-01 0.000000e+00
-9.055118e-01 -9.842520e-01 0.000000e+00
-8.897638e-01 -9.842520e-01 0.000000e+00
-8.740157e-01 -9.842520e-01 0.000000e+00
-8.582677e-01 -9.842520e-01 0.000000e+00
-8.425197e-01 -9.842520e-01 0.000000e+00
-8.267717e-01 -9.842520e-01 0.000000e+00
-8.110236e-01 -9.842520e-01 0.000000e+00
-7.952756e-01 -9.842520e-01 0.000000e+00
-7.795276e-01 -9.842520e-01 0.000000e+00
-7.637795e-01 -9.842520e-01 0.000000e+00
-7.480315e-01 -9.842520e-01 0.000000e+00
-7.322835e-01 -9.842520e-01 0.000000e+00
-7.165354e-01 -9.842520e-01 0.000000e+00
-7.007874e-01 -9.842520e-01 0.000000e+00
-6.850394e-01 -9.842520e-01 0.000000e+00
-6.692913e-01 -9.842520e-01 0.000000e+00
-6.535433e-01 -9.842520e-01 0.000000e+00
-6.377953e-01 -9.842520e-01 0.000000e+00
-6.220472e-01 -9.842520e-01 0.000000e+00
-6.062992e-01 -9.842520e-01 0.000000e+00
-5.905512e-01 -9.842520e-01 0.000000e+00
-5.748031e-01 -9.842520e-01 0.000000e+00
-5.590551e-01 -9.842520e-01 0.000000e+00
-5.433071e-01 -9.842520e-01 0.000000e+00
-5.275591e-01 -9.842520e-01 0.000000e+00
-5.118110e-01 -9.842520e-01 0.000000e+00
-4.960630e-01 -9.842520e-01 0.000000e+00
-4.803150e-01 -9.842520e-01 0.000000e+00
-4.645669e-01 -9.842520e-01 0.000000e+00
-4.488189e-01 -9.842520e-01 0.000000e+00
-4.330709e-01 -9.842520e-01 0.000000e+00
-4.173228e-01 -9.842520e-01 0.000000e+00
-4.015748e-01 -9.842520e-01 0.000000e+00
-3.858268e-01 -9.842520e-01 0.000000e+00
-3.700787e-01 -9.842520e-01 0.000000e+00
-3.543307e-01 -9.842520e-01 0.000000e+00
-3.385827e-01 -9.842520e-01 0.000000e+00
-3.228346e-01 -9.842520e-01 0.000000e+00
-3.070866e-01 -9.842520e-01 0.000000e+00
-2.913386e-01 -9.842520e-01 0.000000e+00
-2.755906e-01 -9.842520e-01 0.000000e+00
-2.598425e-01 -9.842520e-01 0.000000e+00
-2.440945e-01 -9.842520e-01 0.000000e+00
-2.283465e-01 -9.842520e-01 0.000000e+00
-2.125984e-01 -9.842520e-01 0.000000e+00
-1.968504e-01 -9.842520e-01 0.000000e+00
-1.811024e-01 -9.842520e-01 0.000000e+00
-1.653543e-01 -9.842520e-01 0.000000e+00
-1.496063e-01 -9.842520e-01 0.000000e+00
-1.338583e-01 -9.842520e-01 0.000000e+00
-1.181102e-01 -9.842520e-01 0.000000e+00
-1.023622e-01 -9.842520e-01 0.000000e+00
-8.661417e-02 -9.842520e-01 0.000000e+00
-7.086614e-02 -9.842520e-01 0.000000e+00
-5.511811e-02 -9.842520e-01 0.000000e+00
-3.937008e-02 -9.842520e-01 0.000000e+00
-2.362205e-02 -9.842520e-01 0.000000e+00
-7.874016e-03 -9.842520e-01 0.000000e+00
7.874016e-03 -9.842520e-01 0.000000e+00
2.362205e-02 -9.842520e-01 0.000000e+00
3.937008e-02 -9.842520e-01 0.000000e+00
5.511811e-02 -9.842520e-01 0.000000e+00
7.086614e-02 -9.842520e-01 0.000000e+00
8.661417e-02 -9.842520e-01 0.000000e+00
1.023622e-01 -9.842520e-01 0.000000e+00
1.181102e-01 -9.842520e-01 0.000000e+00
1.338583e-01 -9.842520e-01 0.000000e+00
1.496063e-01 -9.842520e-01 0.000000e+00
1.653543e-01 -9.842520e-01 0.000000e+00
1.811024e-01 -9.842520e-01 0.000000e+00
1.968504e-01 -9.842520e-01 0.000000e+00
2.125984e-01 -9.842520e-01 0.000000e+00
2.283465e-01 -9.842520e-01 0.000000e+00
2.440945e-01 -9.842520e-01 0.000000e+00
2.598425e-01 -9.842520e-01 0.000000e+00
2.755906e-01 -9.842520e-01 0.000000e+00
2.913386e-01 -9.842520e-01 0.000000e+00
3.070866e-01 -9.842520e-01 0.000000e+00
3.228346e-01 -9.842520e-01 0.000000e+00
3.385827e-01 -9.842520e-01 0.000000e+00
3.543307e-01 -9.842520e-01 0.000000e+00
3.700787e-01 -9.842520e-01 0.000000e+00
3.858268e-01 -9.842520e-01 0.000000e+00
4.015748e-01 -9.842520e-01 0.000000e+00
4.173228e-01 -9.842520e-01 0.000000e+00
4.330709e-01 -9.842520e-01 0.000000e+00
4.488189e-01 -9.842520e-01 0.000000e+00
4.645669e-01 -9.842520e-01 0.000000e+00
4.803150e-01 -9.842520e-01 0.000000e+00
4.960630e-01 -9.842520e-01 0.000000e+00
5.118110e-01 -9.842520e-01 0.000000e+00
5.275591e-01 -9.842520e-01 0.000000e+00
5.433071e-01 -9.842520e-01 0.000000e+00
5.590551e-01 -9.842520e-01 0.000000e+00
5.748031e-01 -9.842520e-01 0.000000e+00
5.905512e-01 -9.842520e-01 0.000000e+00
6.062992e-01 -9.842520e-01 0.000000e+00
6.220472e-01 -9.842520e-01 0.000000e+00
6.377953e-01 -9.842520e-01 0.000000e+00
6.535433e-01 -9.842520e-01 0.000000e+00
6.692913e-01 -9.842520e-01 0.000000e+00
6.850394e-01 -9.842520e-01 0.000000e+00
7.007874e-01 -9.842520e-01 0.000000e+00
7.165354e-01 -9.842520e-01 0.000000e+00
7.322835e-01 -9.842520e-01 0.000000e+00
7.480315e-01 -9.842520e-01 0.000000e+00
7.637795e-01 -9.842520e-01 0.000000e+00
7.795276e-01 -9.842520e-01 0.000000e+00
7.952756e-01 -9.842520e-01 0.000000e+00
8.110236e-01 -9.842520e-01 0.000000e+00
[...]
POINT_DATA 16384 
SCALARS value_at_nodes double 1 
LOOKUP_TABLE default 
1.397059e+00 
1.389751e+00 
1.382231e+00 
1.374507e+00 
1.366590e+00 
1.358493e+00 
1.350228e+00 
1.341809e+00 
1.333248e+00 
1.324560e+00 
1.315755e+00 
1.306846e+00 
1.297845e+00 
1.288763e+00 
1.279611e+00 
1.270401e+00 
1.261142e+00 
1.251845e+00 
1.242520e+00 
1.233177e+00 
1.223826e+00 
1.214476e+00 
1.205135e+00 
1.195814e+00 
1.186521e+00 
1.177264e+00 
1.168051e+00 
1.158892e+00 
1.149792e+00 
1.140761e+00 
1.131805e+00 
1.122932e+00 
1.114149e+00 
1.105462e+00 
1.096878e+00 
1.088404e+00 
1.080045e+00 
1.071806e+00 
1.063695e+00 
1.055715e+00 
1.047873e+00 
1.040173e+00 
1.032620e+00 
1.025219e+00 
1.017974e+00 
1.010889e+00 
1.003969e+00 
9.972172e-01 
9.906384e-01 
9.842360e-01 
9.780138e-01 
9.719754e-01 
9.661243e-01 
9.604638e-01 
9.549973e-01 
9.497280e-01 
9.446589e-01 
9.397930e-01 
9.351333e-01 
9.306824e-01 
9.264431e-01 
9.224180e-01 
9.186095e-01 
9.150199e-01 
9.116514e-01 
9.085060e-01 
9.055854e-01 
9.028912e-01 
9.004244e-01 
8.981862e-01 
8.961772e-01 
8.943977e-01 
8.928479e-01 
8.915276e-01 
8.904363e-01 
8.895731e-01 
8.889370e-01 
8.885265e-01 
8.883401e-01 
8.883758e-01 
8.886313e-01 
8.891042e-01 
8.897916e-01 
8.906907e-01 
8.917981e-01 
8.931102e-01 
8.946233e-01 
8.963335e-01 
8.982365e-01 
9.003278e-01 
9.026028e-01 
9.050566e-01 
9.076843e-01 
9.104807e-01 
9.134404e-01 
9.165583e-01 
9.198287e-01 
9.232462e-01 
9.268055e-01 
9.305011e-01 
9.343278e-01 
9.382806e-01 
9.423546e-01 
9.465453e-01 
9.508484e-01 
9.552603e-01 
9.597776e-01 
9.643974e-01 
9.691176e-01 
9.739365e-01 
9.788531e-01 
9.838669e-01 
9.889783e-01 
9.941883e-01 
9.994985e-01 
1.004911e+00 
1.010430e+00 
1.016058e+00 
1.021801e+00 
1.027663e+00 
1.033651e+00 
1.039773e+00 
1.046035e+00 
1.052447e+00 
1.059020e+00 
1.065763e+00 
1.072689e+00 
1.079810e+00 
1.393419e+00 
1.385770e+00 
1.377921e+00 
1.369867e+00 
1.361623e+00 
1.353202e+00 
1.344618e+00 
1.335885e+00 
1.327017e+00 
1.318026e+00 
1.308925e+00 
1.299724e+00 
1.290437e+00 
1.281074e+00 
1.271647e+00 
1.262166e+00 
1.252642e+00 
1.243085e+00 
1.233506e+00 
1.223914e+00 
1.214319e+00 
1.204730e+00 
1.195157e+00 
1.185608e+00 
1.176093e+00 
1.166619e+00 
1.157196e+00 
1.147830e+00 
1.138531e+00 
1.129306e+00 
1.120161e+00 
1.111105e+00 
1.102143e+00 
1.093284e+00 
1.084533e+00 
1.075896e+00 
1.067379e+00 
1.058989e+00 
1.050730e+00 
1.042608e+00 
1.034627e+00 
1.026793e+00 
1.019110e+00 
1.011583e+00 
1.004216e+00 
9.970129e-01 
9.899782e-01 
9.831159e-01 
9.764297e-01 
9.699236e-01 
9.636011e-01 
9.574658e-01 
9.515214e-01 
9.457712e-01 
9.402185e-01 
9.348666e-01 
9.297186e-01 
9.247776e-01 
9.200466e-01 
9.155283e-01 
9.112256e-01 
9.071411e-01 
9.032773e-01 
8.996367e-01 
8.962222e-01 
8.930367e-01 
8.900819e-01 
8.873596e-01 
8.848709e-01 
8.826171e-01 
8.805987e-01 
8.788164e-01 
8.772702e-01 
8.759601e-01 
8.748855e-01 
8.740457e-01 
8.734396e-01 
8.730659e-01 
8.729228e-01 
8.730085e-01 
8.733207e-01 
8.738568e-01 
8.746141e-01 
8.755894e-01 
8.767795e-01 
8.781808e-01 
8.797894e-01 
8.816012e-01 
8.836119e-01 
8.858169e-01 
8.882115e-01 
8.907908e-01 
8.935495e-01 
8.964824e-01 
8.995840e-01 
9.028487e-01 
9.062710e-01 
9.098452e-01 
9.135656e-01 
9.174266e-01 
9.214228e-01 
9.255486e-01 
9.297991e-01 
9.341693e-01 
9.386546e-01 
9.432510e-01 
9.479546e-01 
9.527622e-01 
9.576711e-01 
9.626791e-01 
9.677847e-01 
9.729870e-01 
9.782858e-01 
9.836815e-01 
9.891752e-01 
9.947688e-01 
1.000465e+00 
1.006267e+00 
1.012178e+00 
1.018204e+00 
1.024351e+00 
1.030625e+00 
1.037033e+00 
1.043583e+00 
1.050286e+00 
1.057151e+00 
1.064190e+00 
1.071414e+00 
1.389485e+00 
1.381497e+00 
1.373311e+00 
1.364926e+00 
1.356355e+00 
1.347613e+00 
1.338714e+00 
1.329672e+00 
1.320500e+00 
1.311211e+00 
1.301816e+00 
1.292329e+00 
1.282759e+00 
1.273120e+00 
1.263421e+00 
1.253674e+00 
1.243889e+00 
1.234077e+00 
1.224248e+00 
1.214412e+00 
1.204578e+00 
1.194755e+00 
1.184954e+00 
1.175183e+00 
1.165450e+00 
1.155765e+00 
1.146135e+00 
1.136569e+00 
1.127074e+00 
1.117659e+00 
1.108330e+00 
1.099095e+00 
1.089960e+00 
1.080933e+00 
1.072019e+00 
1.063225e+00 
1.054556e+00 
1.046018e+00 
1.037616e+00 
1.029355e+00 
1.021240e+00 
1.013275e+00 
1.005466e+00 
9.978160e-01 
9.903296e-01 
9.830109e-01 
9.758639e-01 
9.688924e-01 
9.621004e-01 
9.554916e-01 
9.490697e-01 
9.428382e-01 
9.368008e-01 
9.309609e-01 
9.253218e-01 
9.198869e-01 
9.146594e-01 
9.096424e-01 
9.048390e-01 
9.002521e-01 
8.958845e-01 
8.917391e-01 
8.878185e-01 
8.841252e-01 
8.806623e-01 
8.774331e-01 
8.744396e-01 
8.716837e-01 
8.691669e-01 
8.668908e-01 
8.648562e-01 
8.630639e-01 
8.615145e-01 
8.602079e-01 
8.591439e-01 
8.583219e-01 
8.577408e-01 
8.573994e-01 
8.572959e-01 
8.574284e-01 
8.577945e-01 
8.583918e-01 
8.592172e-01 
8.602676e-01 
8.615395e-01 
8.630293e-01 
8.647329e-01 
8.666462e-01 
8.687647e-01 
8.710836e-01 
8.735982e-01 
8.763033e-01 
8.791936e-01 
8.822636e-01 
8.855077e-01 
8.889202e-01 
8.924953e-01 
8.962272e-01 
9.001098e-01 
9.041375e-01 
9.083043e-01 
9.126048e-01 
9.170334e-01 
9.215849e-01 
9.262545e-01 
9.310375e-01 
9.359299e-01 
9.409279e-01 
9.460284e-01 
9.512288e-01 
9.565270e-01 
9.619216e-01 
9.674119e-01 
9.729978e-01 
9.786798e-01 
9.844593e-01 
9.903383e-01 
9.963195e-01 
1.002406e+00 
1.008603e+00 
1.014916e+00 
1.021349e+00 
1.027911e+00 
1.034608e+00 
1.041447e+00 
1.048436e+00 
1.055588e+00 
1.062935e+00 
1.385269e+00 
1.376946e+00 
1.368427e+00 
1.359712e+00 
1.350819e+00 
1.341760e+00 
1.332551e+00 
1.323203e+00 
1.313732e+00 
1.304148e+00 
1.294464e+00 
1.284692e+00 
1.274844e+00 
1.264931e+00 
1.254965e+00 
1.244955e+00 
1.234914e+00 
1.224850e+00 
1.214775e+00 
1.204698e+00 
1.194629e+00 
1.184576e+00 
1.174550e+00 
1.164560e+00 
1.154613e+00 
1.144720e+00 
1.134888e+00 
1.125125e+00 
1.115439e+00 
1.105839e+00 
1.096331e+00 
1.086922e+00 
1.077620e+00 
1.068430e+00 
1.059359e+00 
1.050412e+00 
1.041596e+00 
1.032915e+00 
1.024374e+00 
1.015979e+00 
1.007733e+00 
9.996422e-01 
9.917096e-01 
9.839398e-01 
9.763368e-01 
9.689046e-01 
9.616471e-01 
9.545682e-01 
9.476715e-01 
9.409610e-01 
9.344402e-01 
9.281128e-01 
9.219824e-01 
9.160525e-01 
9.103265e-01 
9.048079e-01 
8.994999e-01 
8.944058e-01 
8.895287e-01 
8.848718e-01 
8.804379e-01 
8.762300e-01 
8.722507e-01 
8.685028e-01 
8.649896e-01 
8.617146e-01 
8.586801e-01 
8.558879e-01 
8.533400e-01 
8.510378e-01 
8.489827e-01 
8.471757e-01 
8.456175e-01 
8.443086e-01 
8.432488e-01 
8.424379e-01 
8.418751e-01 
8.415594e-01 
8.414892e-01 
8.416626e-01 
8.420774e-01 
8.427310e-01 
8.436204e-01 
8.447423e-01 
8.460932e-01 
8.476692e-01 
8.494662e-01 
8.514797e-01 
8.537051e-01 
8.561375e-01 
8.587719e-01 
8.616029e-01 
8.646250e-01 
8.678326e-01 
8.712199e-01 
8.747810e-01 
8.785098e-01 
8.824003e-01 
8.864463e-01 
8.906418e-01 
8.949808e-01 
8.994573e-01 
9.040656e-01 
9.088002e-01 
9.136559e-01 
9.186276e-01 
9.237110e-01 
9.289019e-01 
9.341968e-01 
9.395924e-01 
9.450865e-01 
9.506769e-01 
9.563625e-01 
9.621427e-01 
9.680175e-01 
9.739877e-01 
9.800548e-01 
9.862209e-01 
9.924891e-01 
9.988631e-01 
1.005348e+00 
1.011948e+00 
1.018670e+00 
1.025521e+00 
1.032508e+00 
1.039634e+00 
1.046912e+00 
1.054378e+00 
1.380784e+00 
1.372130e+00 
1.363280e+00 
1.354242e+00 
1.345029e+00 
1.335658e+00 
1.326142e+00 
1.316493e+00 
1.306725e+00 
1.296851e+00 
1.286881e+00 
1.276829e+00 
1.266707e+00 
1.256524e+00 
1.246294e+00 
1.236025e+00 
1.225730e+00 
1.215419e+00 
1.205101e+00 
1.194786e+00 
1.184485e+00 
1.174206e+00 
1.163959e+00 
1.153753e+00 
1.143597e+00 
1.133500e+00 
1.123471e+00 
1.113516e+00 
1.103646e+00 
1.093866e+00 
1.084184e+00 
1.074608e+00 
1.065143e+00 
1.055796e+00 
1.046573e+00 
1.037480e+00 
1.028521e+00 
1.019702e+00 
1.011028e+00 
1.002502e+00 
9.941300e-01 
9.859156e-01 
9.778629e-01 
9.699760e-01 
9.622587e-01 
9.547150e-01 
9.473486e-01 
9.401634e-01 
9.331630e-01 
9.263513e-01 
9.197319e-01 
9.133085e-01 
9.070847e-01 
9.010642e-01 
8.952505e-01 
8.896471e-01 
8.842574e-01 
8.790849e-01 
8.741327e-01 
8.694040e-01 
8.649020e-01 
8.606297e-01 
8.565899e-01 
8.527854e-01 
8.492198e-01 
8.458970e-01 
8.428192e-01 
8.399885e-01 
8.374069e-01 
8.350761e-01 
8.329976e-01 
8.311726e-01 
8.296021e-01 
8.282866e-01 
8.272264e-01 
8.264216e-01 
8.258715e-01 
8.255755e-01 
8.255323e-01 
8.257402e-01 
8.261973e-01 
8.269010e-01 
8.278485e-01 
8.290366e-01 
8.304616e-01 
8.321196e-01 
8.340062e-01 
8.361170e-01 
8.384470e-01 
8.409911e-01 
8.437440e-01 
8.467002e-01 
8.498538e-01 
8.531990e-01 
8.567297e-01 
8.604398e-01 
8.643230e-01 
8.683729e-01 
8.725834e-01 
8.769479e-01 
8.814602e-01 
8.861141e-01 
8.909037e-01 
8.958230e-01 
9.008666e-01 
9.060291e-01 
9.113056e-01 
9.166917e-01 
9.221834e-01 
9.277771e-01 
9.334699e-01 
9.392594e-01 
9.451439e-01 
9.511222e-01 
9.571939e-01 
9.633592e-01 
9.696191e-01 
9.759752e-01 
9.824301e-01 
9.889869e-01 
9.956495e-01 
1.002423e+00 
1.009313e+00 
1.016326e+00 
1.023467e+00 
1.030742e+00 
1.038157e+00 
1.045748e+00 
1.376044e+00 
1.367061e+00 
1.357885e+00 
1.348527e+00 
1.339001e+00 
1.329322e+00 
1.319503e+00 
1.309556e+00 
1.299496e+00 
1.289334e+00 
1.279083e+00 
1.268754e+00 
1.258360e+00 
1.247912e+00 
1.237421e+00 
1.226897e+00 
1.216352e+00 
1.205796e+00 
1.195238e+00 
1.184690e+00 
1.174160e+00 
1.163658e+00 
1.153195e+00 
1.142779e+00 
1.132419e+00 
1.122124e+00 
1.111902e+00 
1.101763e+00 
1.091713e+00 
1.081759e+00 
1.071911e+00 
1.062173e+00 
1.052552e+00 
1.043054e+00 
1.033685e+00 
1.024450e+00 
1.015354e+00 
1.006402e+00 
9.975979e-01 
9.889463e-01 
9.804513e-01 
9.721169e-01 
9.639469e-01 
9.559453e-01 
9.481157e-01 
9.404620e-01 
9.329879e-01 
9.256971e-01 
9.185934e-01 
9.116806e-01 
9.049623e-01 
8.984424e-01 
8.921246e-01 
8.860126e-01 
8.801100e-01 
8.744204e-01 
8.689475e-01 
8.636948e-01 
8.586657e-01 
8.538634e-01 
8.492914e-01 
8.449526e-01 
8.408502e-01 
8.369869e-01 
8.333669e-01 
8.299940e-01 
8.268706e-01 
8.239990e-01 
8.213812e-01 
8.190192e-01 
8.169146e-01 
8.150689e-01 
8.134831e-01 
8.121583e-01 
8.110948e-01 
8.102924e-01 
8.097511e-01 
8.094704e-01 
8.094491e-01 
8.096862e-01 
8.101797e-01 
8.109275e-01 
8.119269e-01 
8.131750e-01 
8.146681e-01 
8.164025e-01 
8.183737e-01 
8.205771e-01 
8.230077e-01 
8.256602e-01 
8.285290e-01 
8.316082e-01 
8.348918e-01 
8.383737e-01 
8.420473e-01 
8.459063e-01 
8.499442e-01 
8.541542e-01 
8.585297e-01 
8.630642e-01 
8.677510e-01 
8.725836e-01 
8.775559e-01 
8.826615e-01 
8.878946e-01 
8.932497e-01 
8.987214e-01 
9.043049e-01 
9.099957e-01 
9.157900e-01 
9.216844e-01 
9.276760e-01 
9.337625e-01 
9.399425e-01 
9.462148e-01 
9.525794e-01 
9.590365e-01 
9.655874e-01 
9.722339e-01 
9.789788e-01 
9.858255e-01 
9.927784e-01 
9.998424e-01 
1.007023e+00 
1.014327e+00 
1.021758e+00 
1.029322e+00 
1.037046e+00 
1.371061e+00 
1.361754e+00 
1.352257e+00 
1.342583e+00 
1.332748e+00 
1.322764e+00 
1.312646e+00 
1.302406e+00 
1.292056e+00 
1.281611e+00 
1.271081e+00 
1.260480e+00 
1.249818e+00 
1.239107e+00 
1.228358e+00 
1.217583e+00 
1.206791e+00 
1.195994e+00 
1.185201e+00 
1.174423e+00 
1.163669e+00 
1.152950e+00 
1.142275e+00 
1.131654e+00 
1.121096e+00 
1.110608e+00 
1.100201e+00 
1.089883e+00 
1.079660e+00 
1.069540e+00 
1.059531e+00 
1.049637e+00 
1.039867e+00 
1.030225e+00 
1.020715e+00 
1.011345e+00 
1.002117e+00 
9.930361e-01 
9.841068e-01 
9.753329e-01 
9.667183e-01 
9.582666e-01 
9.499817e-01 
9.418672e-01 
9.339267e-01 
9.261640e-01 
9.185827e-01 
9.111867e-01 
9.039795e-01 
8.969652e-01 
8.901474e-01 
8.835301e-01 
8.771170e-01 
8.709120e-01 
8.649190e-01 
8.591416e-01 
8.535837e-01 
8.482488e-01 
8.431406e-01 
8.382627e-01 
8.336184e-01 
8.292109e-01 
8.250436e-01 
8.211194e-01 
8.174421e-01 
8.140157e-01 
8.108431e-01 
8.079271e-01 
8.052699e-01 
8.028734e-01 
8.007396e-01 
7.988701e-01 
7.972660e-01 
7.959284e-01 
7.948581e-01 
7.940554e-01 
7.935202e-01 
7.932523e-01 
7.932508e-01 
7.935142e-01 
7.940407e-01 
7.948285e-01 
7.958752e-01 
7.971782e-01 
7.987341e-01 
8.005392e-01 
8.025895e-01 
8.048803e-01 
8.074066e-01 
8.101629e-01 
8.131436e-01 
8.163425e-01 
8.197534e-01 
8.233698e-01 
8.271848e-01 
8.311918e-01 
8.353837e-01 
8.397537e-01 
8.442947e-01 
8.489997e-01 
8.538619e-01 
8.588744e-01 
8.640305e-01 
8.693239e-01 
8.747482e-01 
8.802976e-01 
8.859664e-01 
8.917493e-01 
8.976415e-01 
9.036388e-01 
9.097373e-01 
9.159337e-01 
9.222254e-01 
9.286102e-01 
9.350868e-01 
9.416543e-01 
9.483127e-01 
9.550627e-01 
9.619056e-01 
9.688436e-01 
9.758796e-01 
9.830174e-01 
9.902616e-01 
9.976172e-01 
1.005089e+00 
1.012683e+00 
1.020405e+00 
1.028272e+00 
1.365849e+00 
1.356221e+00 
1.346408e+00 
1.336424e+00 
1.326283e+00 
1.315998e+00 
1.305584e+00 
1.295053e+00 
1.284419e+00 
1.273693e+00 
1.262889e+00 
1.252018e+00 
1.241092e+00 
1.230123e+00 
1.219121e+00 
1.208097e+00 
1.197063e+00 
1.186029e+00 
1.175005e+00 
1.164002e+00 
1.153029e+00 
1.142098e+00 
1.131217e+00 
1.120397e+00 
1.109645e+00 
1.098973e+00 
1.088387e+00 
1.077896e+00 
1.067508e+00 
1.057228e+00 
1.047065e+00 
1.037024e+00 
1.027110e+00 
1.017330e+00 
1.007686e+00 
9.981853e-01 
9.888304e-01 
9.796257e-01 
9.705751e-01 
9.616822e-01 
9.529507e-01 
9.443841e-01 
9.359859e-01 
9.277598e-01 
9.197092e-01 
9.118378e-01 
9.041494e-01 
8.966477e-01 
8.893364e-01 
8.822196e-01 
8.753011e-01 
8.685849e-01 
8.620750e-01 
8.557753e-01 
8.496898e-01 
8.438225e-01 
8.381774e-01 
8.327581e-01 
8.275686e-01 
8.226126e-01 
8.178933e-01 
8.134143e-01 
8.091790e-01 
8.051906e-01 
8.014531e-01 
7.979708e-01 
7.947468e-01 
7.917840e-01 
7.890848e-01 
7.866513e-01 
7.844857e-01 
7.825896e-01 
7.809644e-01 
7.796114e-01 
7.785314e-01 
7.777249e-01 
7.771922e-01 
7.769331e-01 
7.769471e-01 
7.772332e-01 
7.777899e-01 
7.786154e-01 
7.797066e-01 
7.810610e-01 
7.826757e-01 
7.845473e-01 
7.866719e-01 
7.890451e-01 
7.916621e-01 
7.945174e-01 
7.976054e-01 
8.009198e-01 
8.044543e-01 
8.082019e-01 
8.121559e-01 
8.163088e-01 
8.206535e-01 
8.251825e-01 
8.298886e-01 
8.347642e-01 
8.398022e-01 
8.449952e-01 
8.503364e-01 
8.558187e-01 
8.614357e-01 
8.671810e-01 
8.730485e-01 
8.790328e-01 
8.851286e-01 
8.913311e-01 
8.976362e-01 
9.040401e-01 
9.105397e-01 
9.171324e-01 
9.238164e-01 
9.305904e-01 
9.374539e-01 
9.444070e-01 
9.514506e-01 
9.585863e-01 
9.658165e-01 
9.731446e-01 
9.805744e-01 
9.881105e-01 
9.957578e-01 
1.003521e+00 
1.011406e+00 
1.019426e+00 
1.360422e+00 
1.350477e+00 
1.340352e+00 
1.330061e+00 
1.319617e+00 
1.309036e+00 
1.298330e+00 
1.287513e+00 
1.276597e+00 
1.265595e+00 
1.254520e+00 
1.243384e+00 
1.232197e+00 
1.220973e+00 
1.209722e+00 
1.198454e+00 
1.187182e+00 
1.175915e+00 
1.164665e+00 
1.153442e+00 
1.142256e+00 
1.131117e+00 
1.120037e+00 
1.109023e+00 
1.098087e+00 
1.087236e+00 
1.076478e+00 
1.065823e+00 
1.055276e+00 
1.044845e+00 
1.034536e+00 
1.024354e+00 
1.014304e+00 
1.004391e+00 
9.946193e-01 
9.849929e-01 
9.755155e-01 
9.661908e-01 
9.570223e-01 
9.480132e-01 
9.391669e-01 
9.304870e-01 
9.219766e-01 
9.136394e-01 
9.054788e-01 
8.974985e-01 
8.897023e-01 
8.820939e-01 
8.746773e-01 
8.674565e-01 
8.604355e-01 
8.536185e-01 
8.470096e-01 
8.406130e-01 
8.344328e-01 
8.284732e-01 
8.227383e-01 
8.172320e-01 
8.119581e-01 
8.069205e-01 
8.021231e-01 
7.975695e-01 
7.932633e-01 
7.892080e-01 
7.854078e-01 
7.818672e-01 
7.785896e-01 
7.755778e-01 
7.728346e-01 
7.703621e-01 
7.681625e-01 
7.662376e-01 
7.645891e-01 
7.632183e-01 
7.621262e-01 
7.613136e-01 
7.607806e-01 
7.605275e-01 
7.605538e-01 
7.608587e-01 
7.614412e-01 
7.622996e-01 
7.634318e-01 
7.648352e-01 
7.665060e-01 
7.684408e-01 
7.706361e-01 
7.730876e-01 
7.757909e-01 
7.787406e-01 
7.819313e-01 
7.853568e-01 
7.890106e-01 
7.928858e-01 
7.969752e-01 
8.012712e-01 
8.057664e-01 
8.104528e-01 
8.153228e-01 
8.203684e-01 
8.255819e-01 
8.309558e-01 
8.364825e-01 
8.421548e-01 
8.479656e-01 
8.539082e-01 
8.599762e-01 
8.661636e-01 
8.724649e-01 
8.788748e-01 
8.853887e-01 
8.920025e-01 
8.987127e-01 
9.055162e-01 
9.124107e-01 
9.193945e-01 
9.264665e-01 
9.336264e-01 
9.408747e-01 
9.482124e-01 
9.556414e-01 
9.631646e-01 
9.707852e-01 
9.785074e-01 
9.863356e-01 
9.942744e-01 
1.002329e+00 
1.010510e+00 
1.354792e+00 
1.344534e+00 
1.334101e+00 
1.323507e+00 
1.312766e+00 
1.301891e+00 
1.290898e+00 
1.279798e+00 
1.268604e+00 
1.257330e+00 
1.245988e+00 
1.234590e+00 
1.223148e+00 
1.211672e+00 
1.200176e+00 
1.188669e+00 
1.177162e+00 
1.165668e+00 
1.154196e+00 
1.142758e+00 
1.131364e+00 
1.120025e+00 
1.108751e+00 
1.097552e+00 
1.086438e+00 
1.075416e+00 
1.064496e+00 
1.053684e+00 
1.042987e+00 
1.032412e+00 
1.021964e+00 
1.011648e+00 
1.001468e+00 
9.914290e-01 
9.815343e-01 
9.717874e-01 
9.621917e-01 
9.527503e-01 
9.434665e-01 
9.343432e-01 
9.253837e-01 
9.165912e-01 
9.079690e-01 
8.995206e-01 
8.912494e-01 
8.831593e-01 
8.752539e-01 
8.675373e-01 
8.600135e-01 
8.526867e-01 
8.455610e-01 
8.386408e-01 
8.319304e-01 
8.254343e-01 
8.191567e-01 
8.131018e-01 
8.072738e-01 
8.016769e-01 
7.963154e-01 
7.911935e-01 
7.863150e-01 
7.816840e-01 
7.773042e-01 
7.731793e-01 
7.693137e-01 
7.657122e-01 
7.623785e-01 
7.593155e-01 
7.565259e-01 
7.540123e-01 
7.517767e-01 
7.498213e-01 
7.481477e-01 
7.467573e-01 
7.456513e-01 
7.448305e-01 
7.442953e-01 
7.440461e-01 
7.440824e-01 
7.444038e-01 
7.450092e-01 
7.458972e-01 
7.470661e-01 
7.485135e-01 
7.502366e-01 
7.522321e-01 
7.544952e-01 
7.570219e-01 
7.598078e-01 
7.628481e-01 
7.661374e-01 
7.696697e-01 
7.734385e-01 
7.774371e-01 
7.816580e-01 
7.860938e-01 
7.907363e-01 
7.955776e-01 
8.006095e-01 
8.058237e-01 
8.112120e-01 
8.167664e-01 
8.224787e-01 
8.283414e-01 
8.343468e-01 
8.404879e-01 
8.467578e-01 
8.531500e-01 
8.596585e-01 
8.662778e-01 
8.730027e-01 
8.798288e-01 
8.867520e-01 
8.937689e-01 
9.008767e-01 
9.080733e-01 
9.153572e-01 
9.227275e-01 
9.301841e-01 
9.377278e-01 
9.453599e-01 
9.530826e-01 
9.608988e-01 
9.688122e-01 
9.768266e-01 
9.849464e-01 
9.931762e-01 
1.001525e+00 
1.348974e+00 
1.338408e+00 
1.327670e+00 
1.316777e+00 
1.305742e+00 
1.294578e+00 
1.283300e+00 
1.271921e+00 
1.260455e+00 
1.248912e+00 
1.237307e+00 
1.225652e+00 
1.213957e+00 
1.202235e+00 
1.190497e+00 
1.178754e+00 
1.167019e+00 
1.155301e+00 
1.143613e+00 
1.131966e+00 
1.120371e+00 
1.108838e+00 
1.097378e+00 
1.086002e+00 
1.074717e+00 
1.063534e+00 
1.052458e+00 
1.041498e+00 
1.030660e+00 
1.019949e+00 
1.009370e+00 
9.989265e-01 
9.886234e-01 
9.784638e-01 
9.684509e-01 
9.585876e-01 
9.488769e-01 
9.393214e-01 
9.299242e-01 
9.206880e-01 
9.116159e-01 
9.027110e-01 
8.939766e-01 
8.854161e-01 
8.770331e-01 
8.688315e-01 
8.608152e-01 
8.529882e-01 
8.453549e-01 
8.379194e-01 
8.306863e-01 
8.236602e-01 
8.168454e-01 
8.102466e-01 
8.038680e-01 
7.977143e-01 
7.917900e-01 
7.860995e-01 
7.806474e-01 
7.754380e-01 
7.704756e-01 
7.657642e-01 
7.613080e-01 
7.571106e-01 
7.531770e-01 
7.495121e-01 
7.461196e-01 
7.430028e-01 
7.401647e-01 
7.376077e-01 
7.353342e-01 
7.333463e-01 
7.316459e-01 
7.302343e-01 
7.291128e-01 
7.282824e-01 
7.277437e-01 
7.274968e-01 
7.275416e-01 
7.278777e-01 
7.285042e-01 
7.294198e-01 
7.306229e-01 
7.321113e-01 
7.338826e-01 
7.359339e-01 
7.382614e-01 
7.408607e-01 
7.437265e-01 
7.468540e-01 
7.502383e-01 
7.538735e-01 
7.577535e-01 
7.618713e-01 
7.662199e-01 
7.707914e-01 
7.755778e-01 
7.805709e-01 
7.857621e-01 
7.911428e-01 
7.967042e-01 
8.024379e-01 
8.083354e-01 
8.143884e-01 
8.205889e-01 
8.269292e-01 
8.334020e-01 
8.400004e-01 
8.467178e-01 
8.535482e-01 
8.604862e-01 
8.675267e-01 
8.746653e-01 
8.818981e-01 
8.892220e-01 
8.966342e-01 
9.041329e-01 
9.117168e-01 
9.193853e-01 
9.271386e-01 
9.349777e-01 
9.429041e-01 
9.509205e-01 
9.590297e-01 
9.672353e-01 
9.755414e-01 
9.839522e-01 
9.924753e-01 
1.342982e+00 
1.332110e+00 
1.321073e+00 
1.309884e+00 
1.298559e+00 
1.287110e+00 
1.275552e+00 
1.263898e+00 
1.252162e+00 
1.240355e+00 
1.228491e+00 
1.216582e+00 
1.204638e+00 
1.192674e+00 
1.180699e+00 