# vtk DataFile Version 2.0 
Quadtree Mesh 
ASCII 
DATASET UNSTRUCTURED_GRID 
POINTS 1024 double 
-1.000000e+00 -1.000000e+00 0.000000e+00
-9.354839e-01 -1.000000e+00 0.000000e+00
-8.709677e-01 -1.000000e+00 0.000000e+00
-8.064516e-01 -1.000000e+00 0.000000e+00
-7.419355e-01 -1.000000e+00 0.000000e+00
-6.774194e-01 -1.000000e+00 0.000000e+00
-6.129032e-01 -1.000000e+00 0.000000e+00
-5.483871e-01 -1.000000e+00 0.000000e+00
-4.838710e-01 -1.000000e+00 0.000000e+00
-4.193548e-01 -1.000000e+00 0.000000e+00
-3.548387e-01 -1.000000e+00 0.000000e+00
-2.903226e-01 -1.000000e+00 0.000000e+00
-2.258065e-01 -1.000000e+00 0.000000e+00
-1.612903e-01 -1.000000e+00 0.000000e+00
-9.677419e-02 -1.000000e+00 0.000000e+00
-3.225806e-02 -1.000000e+00 0.000000e+00
3.225806e-02 -1.000000e+00 0.000000e+00
9.677419e-02 -1.000000e+00 0.000000e+00
1.612903e-01 -1.000000e+00 0.000000e+00
2.258065e-01 -1.000000e+00 0.000000e+00
2.903226e-01 -1.000000e+00 0.000000e+00
3.548387e-01 -1.000000e+00 0.000000e+00
4.193548e-01 -1.000000e+00 0.000000e+00
4.838710e-01 -1.000000e+00 0.000000e+00
5.483871e-01 -1.000000e+00 0.000000e+00
6.129032e-01 -1.000000e+00 0.000000e+00
6.774194e-01 -1.000000e+00 0.000000e+00
7.419355e-01 -1.000000e+00 0.000000e+00
8.064516e-01 -1.000000e+00 0.000000e+00
8.709677e-01 -1.000000e+00 0.000000e+00
9.354839e-01 -1.000000e+00 0.000000e+00
1.000000e+00 -1.000000e+00 0.000000e+00
-1.000000e+00 -9.354839e-01 0.000000e+00
-9.354839e-01 -9.354839e-01 0.000000e+00
-8.709677e-01 -9.354839e-01 0.000000e+00
-8.064516e-01 -9.354839e-01 0.000000e+00
-7.419355e-01 -9.354839e-01 0.000000e+00
-6.774194e-01 -9.354839e-01 0.000000e+00
-6.129032e-01 -9.354839e-01 0.000000e+00
-5.483871e-01 -9.354839e-01 0.000000e+00
-4.838710e-01 -9.354839e-01 0.000000e+00
-4.193548e-01 -9.354839e-01 0.000000e+00
-3.548387e-01 -9.354839e-01 0.000000e+00
-2.903226e-01 -9.354839e-01 0.000000e+00
-2.258065e-01 -9.354839e-01 0.000000e+00
-1.612903e-01 -9.354839e-01 0.000000e+00
-9.677419e-02 -9.354839e-01 0.000000e+00
-3.225806e-02 -9.354839e-01 0.000000e+00
3.225806e-02 -9.354839e-01 0.000000e+00
9.677419e-02 -9.354839e-01 0.000000e+00
1.612903e-01 -9.354839e-01 0.000000e+00
2.258065e-01 -9.354839e-01 0.000000e+00
2.903226e-01 -9.354839e-01 0.000000e+00
3.548387e-01 -9.354839e-01 0.000000e+00
4.193548e-01 -9.354839e-01 0.000000e+00
4.838710e-01 -9.354839e-01 0.000000e+00
5.483871e-01 -9.354839e-01 0.000000e+00
6.129032e-01 -9.354839e-01 0.000000e+00
6.774194e-01 -9.354839e-01 0.000000e+00
7.419355e-01 -9.354839e-01 0.000000e+00
8.064516e-01 -9.354839e-01 0.000000e+00
8.709677e-01 -9.354839e-01 0.000000e+00
9.354839e-01 -9.354839e-01 0.000000e+00
1.000000e+00 -9.354839e-01 0.000000e+00
-1.000000e+00 -8.709677e-01 0.000000e+00
-9.354839e-01 -8.709677e-01 0.000000e+00
-8.709677e-01 -8.709677e-01 0.000000e+00
-8.064516e-01 -8.709677e-01 0.000000e+00
-7.419355e-01 -8.709677e-01 0.000000e+00
-6.774194e-01 -8.709677e-01 0.000000e+00
-6.129032e-01 -8.709677e-01 0.000000e+00
-5.483871e-01 -8.709677e-01 0.000000e+00
-4.838710e-01 -8.709677e-01 0.000000e+00
-4.193548e-01 -8.709677e-01 0.000000e+00
-3.548387e-01 -8.709677e-01 0.000000e+00
-2.903226e-01 -8.709677e-01 0.000000e+00
-2.258065e-01 -8.709677e-01 0.000000e+00
-1.612903e-01 -8.709677e-01 0.000000e+00
-9.677419e-02 -8.709677e-01 0.000000e+00
-3.225806e-02 -8.709677e-01 0.000000e+00
3.225806e-02 -8.709677e-01 0.000000e+00
9.677419e-02 -8.709677e-01 0.000000e+00
1.612903e-01 -8.709677e-01 0.000000e+00
2.258065e-01 -8.709677e-01 0.000000e+00
2.903226e-01 -8.709677e-01 0.000000e+00
3.548387e-01 -8.709677e-01 0.000000e+00
4.193548e-01 -8.709677e-01 0.000000e+00
4.838710e-01 -8.709677e-01 0.000000e+00
5.483871e-01 -8.709677e-01 0.000000e+00
6.129032e-01 -8.709677e-01 0.000000e+00
6.774194e-01 -8.709677e-01 0.000000e+00
7.419355e-01 -8.709677e-01 0.000000e+00
8.064516e-01 -8.709677e-01 0.000000e+00
8.709677e-01 -8.709677e-01 0.000000e+00
9.354839e-01 -8.709677e-01 0.000000e+00
1.000000e+00 -8.709677e-01 0.000000e+00
-1.000000e+00 -8.064516e-01 0.000000e+00
-9.354839e-01 -8.064516e-01 0.000000e+00
-8.709677e-01 -8.064516e-01 0.000000e+00
-8.064516e-01 -8.064516e-01 0.000000e+00
-7.419355e-01 -8.064516e-01 0.000000e+00
-6.774194e-01 -8.064516e-01 0.000000e+00
-6.129032e-01 -8.064516e-01 0.000000e+00
-5.483871e-01 -8.064516e-01 0.000000e+00
-4.838710e-01 -8.064516e-01 0.000000e+00
-4.193548e-01 -8.064516e-01 0.000000e+00
-3.548387e-01 -8.064516e-01 0.000000e+00
-2.903226e-01 -8.064516e-01 0.000000e+00
-2.258065e-01 -8.064516e-01 0.000000e+00
-1.612903e-01 -8.064516e-01 0.000000e+00
-9.677419e-02 -8.064516e-01 0.000000e+00
-3.225806e-02 -8.064516e-01 0.000000e+00
3.225806e-02 -8.064516e-01 0.000000e+00
9.677419e-02 -8.064516e-01 0.000000e+00
1.612903e-01 -8.064516e-01 0.000000e+00
2.258065e-01 -8.064516e-01 0.000000e+00
2.903226e-01 -8.064516e-01 0.000000e+00
3.548387e-01 -8.064516e-01 0.000000e+00
4.193548e-01 -8.064516e-01 0.000000e+00
4.838710e-01 -8.064516e-01 0.000000e+00
5.483871e-01 -8.064516e-01 0.000000e+00
6.129032e-01 -8.064516e-01 0.000000e+00
6.774194e-01 -8.064516e-01 0.000000e+00
7.419355e-01 -8.064516e-01 0.000000e+00
8.064516e-01 -8.064516e-01 0.000000e+00
8.709677e-01 -8.064516e-01 0.000000e+00
9.354839e-01 -8.064516e-01 0.000000e+00
1.000000e+00 -8.064516e-01 0.000000e+00
-1.000000e+00 -7.419355e-01 0.000000e+00
-9.354839e-01 -7.419355e-01 0.000000e+00
-8.709677e-01 -7.419355e-01 0.000000e+00
-8.064516e-01 -7.419355e-01 0.000000e+00
-7.419355e-01 -7.419355e-01 0.000000e+00
-6.774194e-01 -7.419355e-01 0.000000e+00
-6.129032e-01 -7.419355e-01 0.000000e+00
-5.483871e-01 -7.419355e-01 0.000000e+00
-4.838710e-01 -7.419355e-01 0.000000e+00
-4.193548e-01 -7.419355e-01 0.000000e+00
-3.548387e-01 -7.419355e-01 0.000000e+00
-2.903226e-01 -7.419355e-01 0.000000e+00
-2.258065e-01 -7.419355e-01 0.000000e+00
-1.612903e-01 -7.419355e-01 0.000000e+00
-9.677419e-02 -7.419355e-01 0.000000e+00
-3.225806e-02 -7.419355e-01 0.000000e+00
3.225806e-02 -7.419355e-01 0.000000e+00
9.677419e-02 -7.419355e-01 0.000000e+00
1.612903e-01 -7.419355e-01 0.000000e+00
2.258065e-01 -7.419355e-01 0.000000e+00
2.903226e-01 -7.419355e-01 0.000000e+00
3.548387e-01 -7.419355e-01 0.000000e+00
4.193548e-01 -7.419355e-01 0.000000e+00
4.838710e-01 -7.419355e-01 0.000000e+00
5.483871e-01 -7.419355e-01 0.000000e+00
6.129032e-01 -7.419355e-01 0.000000e+00
6.774194e-01 -7.419355e-01 0.000000e+00
7.419355e-01 -7.419355e-01 0.000000e+00
8.064516e-01 -7.419355e-01 0.000000e+00
8.709677e-01 -7.419355e-01 0.000000e+00
9.354839e-01 -7.419355e-01 0.000000e+00
1.000000e+00 -7.419355e-01 0.000000e+00
-1.000000e+00 -6.774194e-01 0.000000e+00
-9.354839e-01 -6.774194e-01 0.000000e+00
-8.709677e-01 -6.774194e-01 0.000000e+00
-8.064516e-01 -6.774194e-01 0.000000e+00
-7.419355e-01 -6.774194e-01 0.000000e+00
-6.774194e-01 -6.774194e-01 0.000000e+00
-6.129032e-01 -6.774194e-01 0.000000e+00
-5.483871e-01 -6.774194e-01 0.000000e+00
-4.838710e-01 -6.774194e-01 0.000000e+00
-4.193548e-01 -6.774194e-01 0.000000e+00
-3.548387e-01 -6.774194e-01 0.000000e+00
-2.903226e-01 -6.774194e-01 0.000000e+00
-2.258065e-01 -6.774194e-01 0.000000e+00
-1.612903e-01 -6.774194e-01 0.000000e+00
-9.677419e-02 -6.774194e-01 0.000000e+00
-3.225806e-02 -6.774194e-01 0.000000e+00
3.225806e-02 -6.774194e-01 0.000000e+00
9.677419e-02 -6.774194e-01 0.000000e+00
1.612903e-01 -6.774194e-01 0.000000e+00
2.258065e-01 -6.774194e-01 0.000000e+00
2.903226e-01 -6.774194e-01 0.000000e+00
3.548387e-01 -6.774194e-01 0.000000e+00
4.193548e-01 -6.774194e-01 0.000000e+00
4.838710e-01 -6.774194e-01 0.000000e+00
5.483871e-01 -6.774194e-01 0.000000e+00
6.129032e-01 -6.774194e-01 0.000000e+00
6.774194e-01 -6.774194e-01 0.000000e+00
7.419355e-01 -6.774194e-01 0.000000e+00
8.064516e-01 -6.774194e-01 0.000000e+00
8.709677e-01 -6.774194e-01 0.000000e+00
9.354839e-01 -6.774194e-01 0.000000e+00
1.000000e+00 -6.774194e-01 0.000000e+00
-1.000000e+00 -6.129032e-01 0.000000e+00
-9.354839e-01 -6.129032e-01 0.000000e+00
-8.709677e-01 -6.129032e-01 0.000000e+00
-8.064516e-01 -6.129032e-01 0.000000e+00
-7.419355e-01 -6.129032e-01 0.000000e+00
-6.774194e-01 -6.129032e-01 0.000000e+00
-6.129032e-01 -6.129032e-01 0.000000e+00
-5.483871e-01 -6.129032e-01 0.000000e+00
-4.838710e-01 -6.129032e-01 0.000000e+00
-4.193548e-01 -6.129032e-01 0.000000e+00
-3.548387e-01 -6.129032e-01 0.000000e+00
-2.903226e-01 -6.129032e-01 0.000000e+00
-2.258065e-01 -6.129032e-01 0.000000e+00
-1.612903e-01 -6.129032e-01 0.000000e+00
-9.677419e-02 -6.129032e-01 0.000000e+00
-3.225806e-02 -6.129032e-01 0.000000e+00
3.225806e-02 -6.129032e-01 0.000000e+00
9.677419e-02 -6.129032e-01 0.000000e+00
1.612903e-01 -6.129032e-01 0.000000e+00
2.258065e-01 -6.129032e-01 0.000000e+00
2.903226e-01 -6.129032e-01 0.000000e+00
3.548387e-01 -6.129032e-01 0.000000e+00
4.193548e-01 -6.129032e-01 0.000000e+00
4.838710e-01 -6.129032e-01 0.000000e+00
5.483871e-01 -6.129032e-01 0.000000e+00
6.129032e-01 -6.129032e-01 0.000000e+00
6.774194e-01 -6.129032e-01 0.000000e+00
7.419355e-01 -6.129032e-01 0.000000e+00
8.064516e-01 -6.129032e-01 0.000000e+00
8.709677e-01 -6.129032e-01 0.000000e+00
9.354839e-01 -6.129032e-01 0.000000e+00
1.000000e+00 -6.129032e-01 0.000000e+00
-1.000000e+00 -5.483871e-01 0.000000e+00
-9.354839e-01 -5.483871e-01 0.000000e+00
-8.709677e-01 -5.483871e-01 0.000000e+00
-8.064516e-01 -5.483871e-01 0.000000e+00
-7.419355e-01 -5.483871e-01 0.000000e+00
-6.774194e-01 -5.483871e-01 0.000000e+00
-6.129032e-01 -5.483871e-01 0.000000e+00
-5.483871e-01 -5.483871e-01 0.000000e+00
-4.838710e-01 -5.483871e-01 0.000000e+00
-4.193548e-01 -5.483871e-01 0.000000e+00
-3.548387e-01 -5.483871e-01 0.000000e+00
-2.903226e-01 -5.483871e-01 0.000000e+00
-2.258065e-01 -5.483871e-01 0.000000e+00
-1.612903e-01 -5.483871e-01 0.000000e+00
-9.677419e-02 -5.483871e-01 0.000000e+00
-3.225806e-02 -5.483871e-01 0.000000e+00
3.225806e-02 -5.483871e-01 0.000000e+00
9.677419e-02 -5.483871e-01 0.000000e+00
1.612903e-01 -5.483871e-01 0.000000e+00
2.258065e-01 -5.483871e-01 0.000000e+00
[...]
POINT_DATA 1024 
SCALARS value_at_nodes double 1 
LOOKUP_TABLE default 
1.400781e+00 
1.350926e+00 
1.302188e+00 
1.254679e+00 
1.208523e+00 
1.163857e+00 
1.120834e+00 
1.079618e+00 
1.040390e+00 
1.003344e+00 
9.686872e-01 
9.366391e-01 
9.074257e-01 
8.812769e-01 
8.584197e-01 
8.390715e-01 
8.234313e-01 
8.116710e-01 
8.039270e-01 
8.002926e-01 
8.008126e-01 
8.054806e-01 
8.142392e-01 
8.269838e-01 
8.435683e-01 
8.638133e-01 
8.875143e-01 
9.144508e-01 
9.443943e-01 
9.771155e-01 
1.012389e+00 
1.050000e+00 
1.361291e+00 
1.310133e+00 
1.260034e+00 
1.211106e+00 
1.163476e+00 
1.117284e+00 
1.072687e+00 
1.029859e+00 
9.889898e-01 
9.502895e-01 
9.139838e-01 
8.803141e-01 
8.495341e-01 
8.219050e-01 
7.976885e-01 
7.771385e-01 
7.604903e-01 
7.479495e-01 
7.396805e-01 
7.357967e-01 
7.363525e-01 
7.413401e-01 
7.506898e-01 
7.642747e-01 
7.819190e-01 
8.034086e-01 
8.285025e-01 
8.569440e-01 
8.884707e-01 
9.228228e-01 
9.597492e-01 
9.990121e-01 
1.323511e+00 
1.271039e+00 
1.219561e+00 
1.169188e+00 
1.120046e+00 
1.072278e+00 
1.026045e+00 
9.815273e-01 
9.389255e-01 
8.984629e-01 
8.603842e-01 
8.249553e-01 
7.924599e-01 
7.631950e-01 
7.374631e-01 
7.155624e-01 
6.977730e-01 
6.843432e-01 
6.754737e-01 
6.713037e-01 
6.719006e-01 
6.772548e-01 
6.872800e-01 
7.018206e-01 
7.206626e-01 
7.435484e-01 
7.701918e-01 
8.002926e-01 
8.335488e-01 
8.696662e-01 
9.083650e-01 
9.493845e-01 
1.287570e+00 
1.233784e+00 
1.180917e+00 
1.129080e+00 
1.078398e+00 
1.029012e+00 
9.810869e-01 
9.348067e-01 
8.903810e-01 
8.480459e-01 
8.080645e-01 
7.707279e-01 
7.363525e-01 
7.052756e-01 
6.778477e-01 
6.544202e-01 
6.353297e-01 
6.208790e-01 
6.113160e-01 
6.068144e-01 
6.074590e-01 
6.132376e-01 
6.240420e-01 
6.396784e-01 
6.598832e-01 
6.843432e-01 
7.127166e-01 
7.446506e-01 
7.797972e-01 
8.178237e-01 
8.584197e-01 
9.013011e-01 
1.253605e+00 
1.198514e+00 
1.144261e+00 
1.090952e+00 
1.038711e+00 
9.876763e-01 
9.380115e-01 
8.899038e-01 
8.435683e-01 
7.992518e-01 
7.572346e-01 
7.178326e-01 
6.813966e-01 
6.483089e-01 
6.189753e-01 
5.938122e-01 
5.732269e-01 
5.575925e-01 
5.472200e-01 
5.423298e-01 
5.430304e-01 
5.493060e-01 
5.610186e-01 
5.779228e-01 
5.996894e-01 
6.259340e-01 
6.562450e-01 
6.902072e-01 
7.274194e-01 
7.675067e-01 
8.101269e-01 
8.549731e-01 
1.221758e+00 
1.165382e+00 
1.109758e+00 
1.054985e+00 
1.001180e+00 
9.484788e-01 
8.970410e-01 
8.470525e-01 
7.987310e-01 
7.523302e-01 
7.081447e-01 
6.665134e-01 
6.278217e-01 
5.925003e-01 
5.610186e-01 
5.338710e-01 
5.115536e-01 
4.945323e-01 
4.832030e-01 
4.778512e-01 
4.786184e-01 
4.854839e-01 
4.982679e-01 
5.166538e-01 
5.402242e-01 
5.685023e-01 
6.009896e-01 
6.371962e-01 
6.766615e-01 
7.189657e-01 
7.637350e-01 
8.106419e-01 
1.192175e+00 
1.134550e+00 
1.077583e+00 
1.021368e+00 
9.660130e-01 
9.116461e-01 
8.584197e-01 
8.065149e-01 
7.561469e-01 
7.075716e-01 
6.610925e-01 
6.170672e-01 
5.759137e-01 
5.381125e-01 
5.042036e-01 
4.747740e-01 
4.504321e-01 
4.317662e-01 
4.192897e-01 
4.133805e-01 
4.142282e-01 
4.218050e-01 
4.358706e-01 
4.560076e-01 
4.816782e-01 
5.122844e-01 
5.472200e-01 
5.859077e-01 
6.278217e-01 
6.724972e-01 
7.195317e-01 
7.685816e-01 
1.165001e+00 
1.106178e+00 
1.047917e+00 
9.903018e-01 
9.334304e-01 
8.774206e-01 
8.224140e-01 
7.685816e-01 
7.161305e-01 
6.653117e-01 
6.164302e-01 
5.698551e-01 
5.260304e-01 
4.854839e-01 
4.488303e-01 
4.167642e-01 
3.900339e-01 
3.693914e-01 
3.555158e-01 
3.489205e-01 
3.498675e-01 
3.583185e-01 
3.739420e-01 
3.961745e-01 
4.243102e-01 
4.575919e-01 
4.952810e-01 
5.367014e-01 
5.812598e-01 
6.284500e-01 
6.778477e-01 
7.291009e-01 
1.140385e+00 
1.080431e+00 
1.020942e+00 
9.619902e-01 
9.036608e-01 
8.460582e-01 
7.893094e-01 
7.335701e-01 
6.790323e-01 
6.259340e-01 
5.745715e-01 
5.253135e-01 
4.786184e-01 
4.350518e-01 
3.953011e-01 
3.601792e-01 
3.306059e-01 
3.075522e-01 
2.919355e-01 
2.844754e-01 
2.855482e-01 
2.950982e-01 
3.126521e-01 
3.374260e-01 
3.684769e-01 
4.048387e-01 
4.456148e-01 
4.900229e-01 
5.374073e-01 
5.872306e-01 
6.390586e-01 
6.925419e-01 
1.118468e+00 
1.057470e+00 
9.968405e-01 
9.366391e-01 
8.769375e-01 
8.178237e-01 
7.594063e-01 
7.018206e-01 
6.452367e-01 
5.898699e-01 
5.359948e-01 
4.839642e-01 
4.342320e-01 
3.873825e-01 
3.441607e-01 
3.054979e-01 
2.725146e-01 
2.464713e-01 
2.286349e-01 
2.200521e-01 
2.212890e-01 
2.322611e-01 
2.522605e-01 
2.801605e-01 
3.146779e-01 
3.545784e-01 
3.987869e-01 
4.464201e-01 
4.967761e-01 
5.493060e-01 
6.035836e-01 
6.592779e-01 
1.099389e+00 
1.037450e+00 
9.757888e-01 
9.144508e-01 
8.534925e-01 
7.929840e-01 
7.330126e-01 
6.736890e-01 
6.151547e-01 
5.575925e-01 
5.012420e-01 
4.464201e-01 
3.935506e-01 
3.432037e-01 
2.961480e-01 
2.534094e-01 
2.163197e-01 
1.865083e-01 
1.657594e-01 
1.556625e-01 
1.571224e-01 
1.700022e-01 
1.931813e-01 
2.249778e-01 
2.636220e-01 
3.075522e-01 
3.555158e-01 
4.065567e-01 
4.599613e-01 
5.152003e-01 
5.718799e-01 
6.297051e-01 
1.083272e+00 
1.020516e+00 
9.579533e-01 
8.956173e-01 
8.335488e-01 
7.717993e-01 
7.104335e-01 
6.495347e-01 
5.892109e-01 
5.296048e-01 
4.709076e-01 
4.133805e-01 
3.573858e-01 
3.034351e-01 
2.522605e-01 
2.049158e-01 
1.629032e-01 
1.282763e-01 
1.035731e-01 
9.132890e-02 
9.310938e-02 
1.086719e-01 
1.361075e-01 
1.728040e-01 
2.163197e-01 
2.647429e-01 
3.166958e-01 
3.712160e-01 
4.276349e-01 
4.854839e-01 
5.444295e-01 
6.042308e-01 
1.070232e+00 
1.006798e+00 
9.434847e-01 
8.803141e-01 
8.173124e-01 
7.545131e-01 
6.919588e-01 
6.297051e-01 
5.678249e-01 
5.064166e-01 
4.456148e-01 
3.856083e-01 
3.266691e-01 
2.691996e-01 
2.138126e-01 
1.614667e-01 
1.136879e-01 
7.288588e-02 
4.260660e-02 
2.709884e-02 
2.937843e-02 
4.895724e-02 
8.225806e-02 
1.250910e-01 
1.741970e-01 
2.274194e-01 
2.834003e-01 
3.412847e-01 
4.005222e-01 
4.607492e-01 
5.217179e-01 
5.832551e-01 
1.060363e+00 
9.964057e-01 
9.325119e-01 
8.686929e-01 
8.049630e-01 
7.413401e-01 
6.778477e-01 
6.145161e-01 
5.513862e-01 
4.885132e-01 
4.259748e-01 
3.638821e-01 
3.024006e-01 
2.417854e-01 
1.824486e-01 
1.250910e-01 
7.097254e-02 
2.246958e-02 
-1.592400e-02 
-3.690525e-02 
-3.374574e-02 
-7.631283e-03 
3.387097e-02 
8.409540e-02 
1.391894e-01 
1.971314e-01 
2.568390e-01 
3.177017e-01 
3.793556e-01 
4.415727e-01 
5.042036e-01 
5.671470e-01 
1.053741e+00 
9.894273e-01 
9.251373e-01 
8.608748e-01 
7.966450e-01 
7.324548e-01 
6.683129e-01 
6.042308e-01 
5.402242e-01 
4.763144e-01 
4.125317e-01 
3.489205e-01 
2.855482e-01 
2.225222e-01 
1.600244e-01 
9.838710e-02 
3.827882e-02 
-1.877254e-02 
-6.871919e-02 
-1.002474e-01 
-9.516129e-02 
-5.732415e-02 
-4.945377e-03 
5.310250e-02 
1.136879e-01 
1.755849e-01 
2.382380e-01 
3.013639e-01 
3.648041e-01 
4.284633e-01 
4.922813e-01 
5.562177e-01 
1.050416e+00 
9.859227e-01 
9.214318e-01 
8.569440e-01 
7.924599e-01 
7.279802e-01 
6.635060e-01 
5.990385e-01 
5.345796e-01 
4.701317e-01 
4.056983e-01 
3.412847e-01 
2.768987e-01 
2.125534e-01 
1.482713e-01 
8.409540e-02 
2.011845e-02 
-4.341542e-02 
-1.056073e-01 
-1.596774e-01 
-1.483619e-01 
-9.031072e-02 
-2.760034e-02 
3.608518e-02 
1.001257e-01 
1.643341e-01 
2.286349e-01 
2.929920e-01 
3.573858e-01 
4.218050e-01 
4.862425e-01 
5.506934e-01 
1.050416e+00 
9.859227e-01 
9.214318e-01 
8.569440e-01 
7.924599e-01 
7.279802e-01 
6.635060e-01 
5.990385e-01 
5.345796e-01 
4.701317e-01 
4.056983e-01 
3.412847e-01 
2.768987e-01 
2.125534e-01 
1.482713e-01 
8.409540e-02 
2.011845e-02 
-4.341542e-02 
-1.056073e-01 
-1.596774e-01 
-1.483619e-01 
-9.031072e-02 
-2.760034e-02 
3.608518e-02 
1.001257e-01 
1.643341e-01 
2.286349e-01 
2.929920e-01 
3.573858e-01 
4.218050e-01 
4.862425e-01 
5.506934e-01 
1.053741e+00 
9.894273e-01 
9.251373e-01 
8.608748e-01 
7.966450e-01 
7.324548e-01 
6.683129e-01 
6.042308e-01 
5.402242e-01 
4.763144e-01 
4.125317e-01 
3.489205e-01 
2.855482e-01 
2.225222e-01 
1.600244e-01 
9.838710e-02 
3.827882e-02 
-1.877254e-02 
-6.871919e-02 
-1.002474e-01 
-9.516129e-02 
-5.732415e-02 
-4.945377e-03 
5.310250e-02 
1.136879e-01 
1.755849e-01 
2.382380e-01 
3.013639e-01 
3.648041e-01 
4.284633e-01 
4.922813e-01 
5.562177e-01 
1.060363e+00 
9.964057e-01 
9.325119e-01 
8.686929e-01 
8.049630e-01 
7.413401e-01 
6.778477e-01 
6.145161e-01 
5.513862e-01 
4.885132e-01 
4.259748e-01 
3.638821e-01 
3.024006e-01 
2.417854e-01 
1.824486e-01 
1.250910e-01 
7.097254e-02 
2.246958e-02 
-1.592400e-02 
-3.690525e-02 
-3.374574e-02 
-7.631283e-03 
3.387097e-02 
8.409540e-02 
1.391894e-01 
1.971314e-01 
2.568390e-01 
3.177017e-01 
3.793556e-01 
4.415727e-01 
5.042036e-01 
5.671470e-01 
1.070232e+00 
1.006798e+00 
9.434847e-01 
8.803141e-01 
8.173124e-01 
7.545131e-01 
6.919588e-01 
6.297051e-01 
5.678249e-01 
5.064166e-01 
4.456148e-01 
3.856083e-01 
3.266691e-01 
2.691996e-01 
2.138126e-01 
1.614667e-01 
1.136879e-01 
7.288588e-02 
4.260660e-02 
2.709884e-02 
2.937843e-02 
4.895724e-02 
8.225806e-02 
1.250910e-01 
1.741970e-01 
2.274194e-01 
2.834003e-01 
3.412847e-01 
4.005222e-01 
4.607492e-01 
5.217179e-01 
5.832551e-01 
1.083272e+00 
1.020516e+00 
9.579533e-01 
8.956173e-01 
8.335488e-01 
7.717993e-01 
7.104335e-01 
6.495347e-01 
5.892109e-01 
5.296048e-01 
4.709076e-01 
4.133805e-01 
3.573858e-01 
3.034351e-01 
2.522605e-01 
2.049158e-01 
1.629032e-01 
1.282763e-01 
1.035731e-01 
9.132890e-02 
9.310938e-02 
1.086719e-01 
1.361075e-01 
1.728040e-01 
2.163197e-01 
2.647429e-01 
3.166958e-01 
3.712160e-01 
4.276349e-01 
4.854839e-01 
5.444295e-01 
6.042308e-01 
1.099389e+00 
1.037450e+00 
9.757888e-01 
9.144508e-01 
8.534925e-01 
7.929840e-01 
7.330126e-01 
6.736890e-01 
6.151547e-01 
5.575925e-01 
5.012420e-01 
4.464201e-01 
3.935506e-01 
3.432037e-01 
2.961480e-01 
2.534094e-01 
2.163197e-01 
1.865083e-01 
1.657594e-01 
1.556625e-01 
1.571224e-01 
1.700022e-01 
1.931813e-01 
2.249778e-01 
2.636220e-01 
3.075522e-01 
3.555158e-01 
4.065567e-01 
4.599613e-01 
5.152003e-01 
5.718799e-01 
6.297051e-01 
1.118468e+00 
1.057470e+00 
9.968405e-01 
9.366391e-01 
8.769375e-01 
8.178237e-01 
7.594063e-01 
7.018206e-01 
6.452367e-01 
5.898699e-01 
5.359948e-01 
4.839642e-01 
4.342320e-01 
3.873825e-01 
3.441607e-01 
3.054979e-01 
2.725146e-01 
2.464713e-01 
2.286349e-01 
2.200521e-01 
2.212890e-01 
2.322611e-01 
2.522605e-01 
2.801605e-01 
3.146779e-01 
3.545784e-01 
3.987869e-01 
4.464201e-01 
4.967761e-01 
5.493060e-01 
6.035836e-01 
6.592779e-01 
1.140385e+00 
1.080431e+00 
1.020942e+00 
9.619902e-01 
9.036608e-01 
8.460582e-01 
7.893094e-01 
7.335701e-01 
6.790323e-01 
6.259340e-01 
5.745715e-01 
5.253135e-01 
4.786184e-01 
4.350518e-01 
3.953011e-01 
3.601792e-01 
3.306059e-01 
3.075522e-01 
2.919355e-01 
2.844754e-01 
2.855482e-01 
2.950982e-01 
3.126521e-01 
3.374260e-01 
3.684769e-01 
4.048387e-01 
4.456148e-01 
4.900229e-01 
5.374073e-01 
5.872306e-01 
6.390586e-01 
6.925419e-01 
1.165001e+00 
1.106178e+00 
1.047917e+00 
9.903018e-01 
9.334304e-01 
8.774206e-01 
8.224140e-01 
7.685816e-01 
7.161305e-01 
6.653117e-01 
6.164302e-01 
5.698551e-01 
5.260304e-01 
4.854839e-01 
4.488303e-01 
4.167642e-01 
3.900339e-01 
3.693914e-01 
3.555158e-01 
3.489205e-01 
3.498675e-01 
3.583185e-01 
3.739420e-01 
3.961745e-01 
4.243102e-01 
4.575919e-01 
4.952810e-01 
5.367014e-01 
5.812598e-01 
6.284500e-01 
6.778477e-01 
7.291009e-01 
1.192175e+00 
1.134550e+00 
1.077583e+00 
1.021368e+00 
9.660130e-01 
9.116461e-01 
8.584197e-01 
8.065149e-01 
7.561469e-01 
7.075716e-01 
6.610925e-01 
6.170672e-01 
5.759137e-01 
5.381125e-01 
5.042036e-01 
4.747740e-01 
4.504321e-01 
4.317662e-01 
4.192897e-01 
4.133805e-01 
4.142282e-01 
4.218050e-01 
4.358706e-01 
4.560076e-01 
4.816782e-01 
5.122844e-01 
5.472200e-01 
5.859077e-01 
6.278217e-01 
6.724972e-01 
7.195317e-01 
7.685816e-01 
1.221758e+00 
1.165382e+00 
1.109758e+00 
1.054985e+00 
1.001180e+00 
9.484788e-01 
8.970410e-01 
8.470525e-01 
7.987310e-01 
7.523302e-01 
7.081447e-01 
6.665134e-01 
6.278217e-01 
5.925003e-01 
5.610186e-01 
5.338710e-01 
5.115536e-01 
4.945323e-01 
4.832030e-01 
4.778512e-01 
4.786184e-01 
4.854839e-01 
4.982679e-01 
5.166538e-01 
5.402242e-01 
5.685023e-01 
6.009896e-01 
6.371962e-01 
6.766615e-01 
7.189657e-01 
7.637350e-01 
8.106419e-01 
1.253605e+00 
1.198514e+00 
1.144261e+00 
1.090952e+00 
1.038711e+00 
9.876763e-01 
9.380115e-01 
8.899038e-01 
8.435683e-01 
7.992518e-01 
7.572346e-01 
7.178326e-01 
6.813966e-01 
6.483089e-01 
6.189753e-01 
5.938122e-01 
5.732269e-01 
5.575925e-01 
5.472200e-01 
5.423298e-01 
5.430304e-01 
5.493060e-01 
5.610186e-01 
5.779228e-01 
5.996894e-01 
6.259340e-01 
6.562450e-01 
6.902072e-01 
7.274194e-01 
7.675067e-01 
8.101269e-01 
8.549731e-01 
1.287570e+00 
1.233784e+00 
1.180917e+00 
1.129080e+00 
1.078398e+00 
1.029012e+00 
9.810869e-01 
9.348067e-01 
8.903810e-01 
8.480459e-01 
8.080645e-01 
7.707279e-01 
7.363525e-01 
7.052756e-01 
6.778477e-01 
6.544202e-01 
6.353297e-01 
6.208790e-01 
6.113160e-01 
6.068144e-01 
6.074590e-01 
6.132376e-01 
6.240420e-01 
6.396784e-01 
6.598832e-01 
6.843432e-01 
7.127166e-01 
7.446506e-01 
7.797972e-01 
8.178237e-01 
8.584197e-01 
9.013011e-01 
1.323511e+00 
1.271039e+00 
1.219561e+00 
1.169188e+00 
1.120046e+00 
1.072278e+00 
1.026045e+00 
9.815273e-01 
9.389255e-01 
8.984629e-01 
8.603842e-01 
8.249553e-01 
7.924599e-01 
7.631950e-01 
7.374631e-01 
7.155624e-01 
6.977730e-01 
6.843432e-01 
6.754737e-01 
6.713037e-01 
6.719006e-01 
6.772548e-01 
6.872800e-01 
7.018206e-01 
7.206626e-01 
7.435484e-01 
7.701918e-01 
8.002926e-01 
8.335488e-01 
8.696662e-01 
9.083650e-01 
9.493845e-01 
1.361291e+00 
1.310133e+00 
1.260034e+00 
1.211106e+00 
1.163476e+00 
1.117284e+00 
1.072687e+00 
1.029859e+00 
9.889898e-01 
9.502895e-01 
9.139838e-01 
8.803141e-01 
8.495341e-01 
8.219050e-01 
7.976885e-01 
7.771385e-01 
7.604903e-01 
7.479495e-01 
7.396805e-01 
7.357967e-01 
7.363525e-01 
7.413401e-01 
7.506898e-01 
7.642747e-01 
7.819190e-01 
8.034086e-01 
8.285025e-01 
8.569440e-01 
8.884707e-01 
9.228228e-01 
9.597492e-01 
9.990121e-01 
1.400781e+00 
1.350926e+00 
1.302188e+00 
1.254679e+00 
1.208523e+00 
1.163857e+00 
1.120834e+00 
1.079618e+00 
1.040390e+00 
1.003344e+00 
9.686872e-01 
9.366391e-01 
9.074257e-01 
8.812769e-01 
8.584197e-01 
8.390715e-01 
8.234313e-01 
8.116710e-01 
8.039270e-01 
8.002926e-01 
8.008126e-01 
8.054806e-01 
8.142392e-01 
8.269838e-01 
8.435683e-01 
8.638133e-01 
8.875143e-01 
9.144508e-01 
9.443943e-01 
9.771155e-01 
1.012389e+00 
1.050000e+00 
