# vtk DataFile Version 2.0 
Quadtree Mesh 
ASCII 
DATASET UNSTRUCTURED_GRID 
POINTS 9 double 
-1.000000e+00 -1.000000e+00 0.000000e+00
0.000000e+00 -1.000000e+00 0.000000e+00
1.000000e+00 -1.000000e+00 0.000000e+00
-1.000000e+00 0.000000e+00 0.000000e+00
0.000000e+00 0.000000e+00 0.000000e+00
1.000000e+00 0.000000e+00 0.000000e+00
-1.000000e+00 1.000000e+00 0.000000e+00
0.000000e+00 1.000000e+00 0.000000e+00
1.000000e+00 1.000000e+00 0.000000e+00
CELLS 4 20 
4 0 1 4 3
4 3 4 7 6
4 1 2 5 4
4 4 5 8 7
CELL_TYPES 4 
9 
9 
9 
9 
POINT_DATA 9 
SCALARS value_at_nodes double 1 
LOOKUP_TABLE default 
1.400781e+00 
8.307764e-01 
1.050000e+00 
1.050000e+00 
5.000000e-02 
5.500000e-01 
1.400781e+00 
8.307764e-01 
1.050000e+00 
