# vtk DataFile Version 2.0 
Quadtree Mesh 
ASCII 
DATASET UNSTRUCTURED_GRID 
POINTS 16384 double 
-1.000000e+00 -1.000000e+00 0.000000e+00
-9.842520e-01 -1.000000e+00 0.000000e+00
-9.685039e-01 -1.000000e+00 0.000000e+00
-9.527559e-01 -1.000000e+00 0.000000e+00
-9.370079e-01 -1.000000e+00 0.000000e+00
-9.212598e-01 -1.000000e+00 0.000000e+00
-9.055118e-01 -1.000000e+00 0.000000e+00
-8.897638e-01 -1.000000e+00 0.000000e+00
-8.740157e-01 -1.000000e+00 0.000000e+00
-8.582677e-01 -1.000000e+00 0.000000e+00
-8.425197e-01 -1.000000e+00 0.000000e+00
-8.267717e-01 -1.000000e+00 0.000000e+00
-8.110236e-01 -1.000000e+00 0.000000e+00
-7.952756e-01 -1.000000e+00 0.000000e+00
-7.795276e-01 -1.000000e+00 0.000000e+00
-7.637795e-01 -1.000000e+00 0.000000e+00
-7.480315e-01 -1.000000e+00 0.000000e+00
-7.322835e-01 -1.000000e+00 0.000000e+00
-7.165354e-01 -1.000000e+00 0.000000e+00
-7.007874e-01 -1.000000e+00 0.000000e+00
-6.850394e-01 -1.000000e+00 0.000000e+00
-6.692913e-01 -1.000000e+00 0.000000e+00
-6.535433e-01 -1.000000e+00 0.000000e+00
-6.377953e-01 -1.000000e+00 0.000000e+00
-6.220472e-01 -1.000000e+00 0.000000e+00
-6.062992e-01 -1.000000e+00 0.000000e+00
-5.905512e-01 -1.000000e+00 0.000000e+00
-5.748031e-01 -1.000000e+00 0.000000e+00
-5.590551e-01 -1.000000e+00 0.000000e+00
-5.433071e-01 -1.000000e+00 0.000000e+00
-5.275591e-01 -1.000000e+00 0.000000e+00
-5.118110e-01 -1.000000e+00 0.000000e+00
-4.960630e-01 -1.000000e+00 0.000000e+00
-4.803150e-01 -1.000000e+00 0.000000e+00
-4.645669e-01 -1.000000e+00 0.000000e+00
-4.488189e-01 -1.000000e+00 0.000000e+00
-4.330709e-01 -1.000000e+00 0.000000e+00
-4.173228e-01 -1.000000e+00 0.000000e+00
-4.015748e-01 -1.000000e+00 0.000000e+00
-3.858268e-01 -1.000000e+00 0.000000e+00
-3.700787e-01 -1.000000e+00 0.000000e+00
-3.543307e-01 -1.000000e+00 0.000000e+00
-3.385827e-01 -1.000000e+00 0.000000e+00
-3.228346e-01 -1.000000e+00 0.000000e+00
-3.070866e-01 -1.000000e+00 0.000000e+00
-2.913386e-01 -1.000000e+00 0.000000e+00
-2.755906e-01 -1.000000e+00 0.000000e+00
-2.598425e-01 -1.000000e+00 0.000000e+00
-2.440945e-01 -1.000000e+00 0.000000e+00
-2.283465e-01 -1.000000e+00 0.000000e+00
-2.125984e-01 -1.000000e+00 0.000000e+00
-1.968504e-01 -1.000000e+00 0.000000e+00
-1.811024e-01 -1.000000e+00 0.000000e+00
-1.653543e-01 -1.000000e+00 0.000000e+00
-1.496063e-01 -1.000000e+00 0.000000e+00
-1.338583e-01 -1.000000e+00 0.000000e+00
-1.181102e-01 -1.000000e+00 0.000000e+00
-1.023622e-01 -1.000000e+00 0.000000e+00
-8.661417e-02 -1.000000e+00 0.000000e+00
-7.086614e-02 -1.000000e+00 0.000000e+00
-5.511811e-02 -1.000000e+00 0.000000e+00
-3.937008e-02 -1.000000e+00 0.000000e+00
-2.362205e-02 -1.000000e+00 0.000000e+00
-7.874016e-03 -1.000000e+00 0.000000e+00
7.874016e-03 -1.000000e+00 0.000000e+00
2.362205e-02 -1.000000e+00 0.000000e+00
3.937008e-02 -1.000000e+00 0.000000e+00
5.511811e-02 -1.000000e+00 0.000000e+00
7.086614e-02 -1.000000e+00 0.000000e+00
8.661417e-02 -1.000000e+00 0.000000e+00
1.023622e-01 -1.000000e+00 0.000000e+00
1.181102e-01 -1.000000e+00 0.000000e+00
1.338583e-01 -1.000000e+00 0.000000e+00
1.496063e-01 -1.000000e+00 0.000000e+00
1.653543e-01 -1.000000e+00 0.000000e+00
1.811024e-01 -1.000000e+00 0.000000e+00
1.968504e-01 -1.000000e+00 0.000000e+00
2.125984e-01 -1.000000e+00 0.000000e+00
2.283465e-01 -1.000000e+00 0.000000e+00
2.440945e-01 -1.000000e+00 0.000000e+00
2.598425e-01 -1.000000e+00 0.000000e+00
2.755906e-01 -1.000000e+00 0.000000e+00
2.913386e-01 -1.000000e+00 0.000000e+00
3.070866e-01 -1.000000e+00 0.000000e+00
3.228346e-01 -1.000000e+00 0.000000e+00
3.385827e-01 -1.000000e+00 0.000000e+00
3.543307e-01 -1.000000e+00 0.000000e+00
3.700787e-01 -1.000000e+00 0.000000e+00
3.858268e-01 -1.000000e+00 0.000000e+00
4.015748e-01 -1.000000e+00 0.000000e+00
4.173228e-01 -1.000000e+00 0.000000e+00
4.330709e-01 -1.000000e+00 0.000000e+00
4.488189e-01 -1.000000e+00 0.000000e+00
4.645669e-01 -1.000000e+00 0.000000e+00
4.803150e-01 -1.000000e+00 0.000000e+00
4.960630e-01 -1.000000e+00 0.000000e+00
5.118110e-01 -1.000000e+00 0.000000e+00
5.275591e-01 -1.000000e+00 0.000000e+00
5.433071e-01 -1.000000e+00 0.000000e+00
5.590551e-01 -1.000000e+00 0.000000e+00
5.748031e-01 -1.000000e+00 0.000000e+00
5.905512e-01 -1.000000e+00 0.000000e+00
6.062992e-01 -1.000000e+00 0.000000e+00
6.220472e-01 -1.000000e+00 0.000000e+00
6.377953e-01 -1.000000e+00 0.000000e+00
6.535433e-01 -1.000000e+00 0.000000e+00
6.692913e-01 -1.000000e+00 0.000000e+00
6.850394e-01 -1.000000e+00 0.000000e+00
7.007874e-01 -1.000000e+00 0.000000e+00
7.165354e-01 -1.000000e+00 0.000000e+00
7.322835e-01 -1.000000e+00 0.000000e+00
7.480315e-01 -1.000000e+00 0.000000e+00
7.637795e-01 -1.000000e+00 0.000000e+00
7.795276e-01 -1.000000e+00 0.000000e+00
7.952756e-01 -1.000000e+00 0.000000e+00
8.110236e-01 -1.000000e+00 0.000000e+00
8.267717e-01 -1.000000e+00 0.000000e+00
8.425197e-01 -1.000000e+00 0.000000e+00
8.582677e-01 -1.000000e+00 0.000000e+00
8.740157e-01 -1.000000e+00 0.000000e+00
8.897638e-01 -1.000000e+00 0.000000e+00
9.055118e-01 -1.000000e+00 0.000000e+00
9.212598e-01 -1.000000e+00 0.000000e+00
9.370079e-01 -1.000000e+00 0.000000e+00
9.527559e-01 -1.000000e+00 0.000000e+00
9.685039e-01 -1.000000e+00 0.000000e+00
9.842520e-01 -1.000000e+00 0.000000e+00
1.000000e+00 -1.000000e+00 0.000000e+00
-1.000000e+00 -9.842520e-01 0.000000e+00
-9.842520e-01 -9.842520e-01 0.000000e+00
-9.685039e-01 -9.842520e-01 0.000000e+00
-9.527559e-01 -9.842520e-01 0.000000e+00
-9.370079e-01 -9.842520e-01 0.000000e+00
-9.212598e-01 -9.842520e-01 0.000000e+00
-9.055118e-01 -9.842520e-01 0.000000e+00
-8.897638e-01 -9.842520e-01 0.000000e+00
-8.740157e-01 -9.842520e-01 0.000000e+00
-8.582677e-01 -9.842520e-01 0.000000e+00
-8.425197e-01 -9.842520e-01 0.000000e+00
-8.267717e-01 -9.842520e-01 0.000000e+00
-8.110236e-01 -9.842520e-01 0.000000e+00
-7.952756e-01 -9.842520e-01 0.000000e+00
-7.795276e-01 -9.842520e-01 0.000000e+00
-7.637795e-01 -9.842520e-01 0.000000e+00
-7.480315e-01 -9.842520e-01 0.000000e+00
-7.322835e-01 -9.842520e-01 0.000000e+00
-7.165354e-01 -9.842520e-01 0.000000e+00
-7.007874e-01 -9.842520e-01 0.000000e+00
-6.850394e-01 -9.842520e-01 0.000000e+00
-6.692913e-01 -9.842520e-01 0.000000e+00
-6.535433e-01 -9.842520e-01 0.000000e+00
-6.377953e-01 -9.842520e-01 0.000000e+00
-6.220472e-01 -9.842520e-01 0.000000e+00
-6.062992e-01 -9.842520e-01 0.000000e+00
-5.905512e-01 -9.842520e-01 0.000000e+00
-5.748031e-01 -9.842520e-01 0.000000e+00
-5.590551e-01 -9.842520e-01 0.000000e+00
-5.433071e-01 -9.842520e-01 0.000000e+00
-5.275591e-01 -9.842520e-01 0.000000e+00
-5.118110e-01 -9.842520e-01 0.000000e+00
-4.960630e-01 -9.842520e-01 0.000000e+00
-4.803150e-01 -9.842520e-01 0.000000e+00
-4.645669e-01 -9.842520e-01 0.000000e+00
-4.488189e-01 -9.842520e-01 0.000000e+00
-4.330709e-01 -9.842520e-01 0.000000e+00
-4.173228e-01 -9.842520e-01 0.000000e+00
-4.015748e-01 -9.842520e-01 0.000000e+00
-3.858268e-01 -9.842520e-01 0.000000e+00
-3.700787e-01 -9.842520e-01 0.000000e+00
-3.543307e-01 -9.842520e-01 0.000000e+00
-3.385827e-01 -9.842520e-01 0.000000e+00
-3.228346e-01 -9.842520e-01 0.000000e+00
-3.070866e-01 -9.842520e-01 0.000000e+00
-2.913386e-01 -9.842520e-01 0.000000e+00
-2.755906e-01 -9.842520e-01 0.000000e+00
-2.598425e-01 -9.842520e-01 0.000000e+00
-2.440945e-01 -9.842520e-01 0.000000e+00
-2.283465e-01 -9.842520e-01 0.000000e+00
-2.125984e-01 -9.842520e-01 0.000000e+00
-1.968504e-01 -9.842520e-01 0.000000e+00
-1.811024e-01 -9.842520e-01 0.000000e+00
-1.653543e-01 -9.842520e-01 0.000000e+00
-1.496063e-01 -9.842520e-01 0.000000e+00
-1.338583e-01 -9.842520e-01 0.000000e+00
-1.181102e-01 -9.842520e-01 0.000000e+00
-1.023622e-01 -9.842520e-01 0.000000e+00
-8.661417e-02 -9.842520e-01 0.000000e+00
-7.086614e-02 -9.842520e-01 0.000000e+00
-5.511811e-02 -9.842520e-01 0.000000e+00
-3.937008e-02 -9.842520e-01 0.000000e+00
-2.362205e-02 -9.842520e-01 0.000000e+00
-7.874016e-03 -9.842520e-01 0.000000e+00
7.874016e-03 -9.842520e-01 0.000000e+00
2.362205e-02 -9.842520e-01 0.000000e+00
3.937008e-02 -9.842520e-01 0.000000e+00
5.511811e-02 -9.842520e-01 0.000000e+00
7.086614e-02 -9.842520e-01 0.000000e+00
8.661417e-02 -9.842520e-01 0.000000e+00
1.023622e-01 -9.842520e-01 0.000000e+00
1.181102e-01 -9.842520e-01 0.000000e+00
1.338583e-01 -9.842520e-01 0.000000e+00
1.496063e-01 -9.842520e-01 0.000000e+00
1.653543e-01 -9.842520e-01 0.000000e+00
1.811024e-01 -9.842520e-01 0.000000e+00
1.968504e-01 -9.842520e-01 0.000000e+00
2.125984e-01 -9.842520e-01 0.000000e+00
2.283465e-01 -9.842520e-01 0.000000e+00
2.440945e-01 -9.842520e-01 0.000000e+00
2.598425e-01 -9.842520e-01 0.000000e+00
2.755906e-01 -9.842520e-01 0.000000e+00
2.913386e-01 -9.842520e-01 0.000000e+00
3.070866e-01 -9.842520e-01 0.000000e+00
3.228346e-01 -9.842520e-01 0.000000e+00
3.385827e-01 -9.842520e-01 0.000000e+00
3.543307e-01 -9.842520e-01 0.000000e+00
3.700787e-01 -9.842520e-01 0.000000e+00
3.858268e-01 -9.842520e-01 0.000000e+00
4.015748e-01 -9.842520e-01 0.000000e+00
4.173228e-01 -9.842520e-01 0.000000e+00
4.330709e-01 -9.842520e-01 0.000000e+00
4.488189e-01 -9.842520e-01 0.000000e+00
4.645669e-01 -9.842520e-01 0.000000e+00
4.803150e-01 -9.842520e-01 0.000000e+00
4.960630e-01 -9.842520e-01 0.000000e+00
5.118110e-01 -9.842520e-01 0.000000e+00
5.275591e-01 -9.842520e-01 0.000000e+00
5.433071e-01 -9.842520e-01 0.000000e+00
5.590551e-01 -9.842520e-01 0.000000e+00
5.748031e-01 -9.842520e-01 0.000000e+00
5.905512e-01 -9.842520e-01 0.000000e+00
6.062992e-01 -9.842520e-01 0.000000e+00
6.220472e-01 -9.842520e-01 0.000000e+00
6.377953e-01 -9.842520e-01 0.000000e+00
6.535433e-01 -9.842520e-01 0.000000e+00
6.692913e-01 -9.842520e-01 0.000000e+00
6.850394e-01 -9.842520e-01 0.000000e+00
7.007874e-01 -9.842520e-01 0.000000e+00
7.165354e-01 -9.842520e-01 0.000000e+00
7.322835e-01 -9.842520e-01 0.000000e+00
7.480315e-01 -9.842520e-01 0.000000e+00
7.637795e-01 -9.842520e-01 0.000000e+00
7.795276e-01 -9.842520e-01 0.000000e+00
7.952756e-01 -9.842520e-01 0.000000e+00
8.110236e-01 -9.842520e-01 0.000000e+00
[...]
POINT_DATA 16384 
SCALARS value_at_nodes double 1 
LOOKUP_TABLE default 
1.142954e-02 
1.142777e-02 
1.142433e-02 
1.141916e-02 
1.141222e-02 
1.140345e-02 
1.139280e-02 
1.138020e-02 
1.136561e-02 
1.134897e-02 
1.133021e-02 
1.130928e-02 
1.128612e-02 
1.126066e-02 
1.123284e-02 
1.120260e-02 
1.116986e-02 
1.113455e-02 
1.109662e-02 
1.105598e-02 
1.101255e-02 
1.096628e-02 
1.091706e-02 
1.086483e-02 
1.080950e-02 
1.075098e-02 
1.068918e-02 
1.062401e-02 
1.055537e-02 
1.048315e-02 
1.040725e-02 
1.032756e-02 
1.024395e-02 
1.015631e-02 
1.006451e-02 
9.968392e-03 
9.867824e-03 
9.762646e-03 
9.652692e-03 
9.537783e-03 
9.417728e-03 
9.292322e-03 
9.161343e-03 
9.024550e-03 
8.881679e-03 
8.732442e-03 
8.576519e-03 
8.413556e-03 
8.243156e-03 
8.064870e-03 
7.878191e-03 
7.682540e-03 
7.477258e-03 
7.261584e-03 
7.034652e-03 
6.795468e-03 
6.542908e-03 
6.275704e-03 
5.992456e-03 
5.691646e-03 
5.371681e-03 
5.030956e-03 
4.667963e-03 
4.281430e-03 
3.870509e-03 
3.434993e-03 
2.975551e-03 
2.493947e-03 
1.993208e-03 
1.477693e-03 
9.530293e-04 
4.259087e-04 
9.625651e-05 
6.057590e-04 
1.095038e-03 
1.557033e-03 
1.985303e-03 
2.373611e-03 
2.714109e-03 
2.989918e-03 
2.811892e-03 
2.536245e-03 
2.200442e-03 
1.817581e-03 
1.396224e-03 
9.435251e-04 
4.661473e-04 
2.947906e-05 
5.371654e-04 
1.051086e-03 
1.565934e-03 
2.077055e-03 
2.580544e-03 
3.073280e-03 
3.552908e-03 
4.017770e-03 
4.466813e-03 
4.899474e-03 
5.315571e-03 
5.715193e-03 
6.098616e-03 
6.466222e-03 
6.818451e-03 
7.155757e-03 
7.478582e-03 
7.787342e-03 
8.082418e-03 
8.364157e-03 
8.632871e-03 
8.888846e-03 
9.132342e-03 
9.363607e-03 
9.582878e-03 
9.790385e-03 
9.986361e-03 
1.017104e-02 
1.034467e-02 
1.050751e-02 
1.065980e-02 
1.080184e-02 
1.093390e-02 
1.105627e-02 
1.116926e-02 
1.127318e-02 
1.136836e-02 
1.145510e-02 
1.153375e-02 
1.160462e-02 
1.134625e-02 
1.134621e-02 
1.134453e-02 
1.134114e-02 
1.133600e-02 
1.132904e-02 
1.132023e-02 
1.130949e-02 
1.129678e-02 
1.128204e-02 
1.126520e-02 
1.124620e-02 
1.122500e-02 
1.120151e-02 
1.117568e-02 
1.114744e-02 
1.111672e-02 
1.108346e-02 
1.104758e-02 
1.100901e-02 
1.096768e-02 
1.092350e-02 
1.087641e-02 
1.082632e-02 
1.077314e-02 
1.071680e-02 
1.065719e-02 
1.059422e-02 
1.052780e-02 
1.045783e-02 
1.038419e-02 
1.030678e-02 
1.022547e-02 
1.014016e-02 
1.005069e-02 
9.956945e-03 
9.858767e-03 
9.756002e-03 
9.648486e-03 
9.536041e-03 
9.418477e-03 
9.295591e-03 
9.167161e-03 
9.032949e-03 
8.892695e-03 
8.746112e-03 
8.592887e-03 
8.432670e-03 
8.265070e-03 
8.089648e-03 
7.905904e-03 
7.713272e-03 
7.511100e-03 
7.298642e-03 
7.075038e-03 
6.839303e-03 
6.590311e-03 
6.326785e-03 
6.047300e-03 
5.750294e-03 
5.434102e-03 
5.097017e-03 
4.737391e-03 
4.353774e-03 
3.945110e-03 
3.510956e-03 
3.051749e-03 
2.569046e-03 
2.065729e-03 
1.546108e-03 
1.015879e-03 
4.819339e-04 
4.800140e-05 
5.658198e-04 
1.063524e-03 
1.533632e-03 
1.969350e-03 
2.364187e-03 
2.710146e-03 
2.990197e-03 
2.811280e-03 
2.531713e-03 
2.190459e-03 
1.801035e-03 
1.372317e-03 
9.117665e-04 
4.263585e-04 
7.716809e-05 
5.923410e-04 
1.113095e-03 
1.633942e-03 
2.150116e-03 
2.657665e-03 
3.153480e-03 
3.635260e-03 
4.101435e-03 
4.551055e-03 
4.983660e-03 
5.399167e-03 
5.797752e-03 
6.179759e-03 
6.545630e-03 
6.895844e-03 
7.230883e-03 
7.551209e-03 
7.857248e-03 
8.149388e-03 
8.427979e-03 
8.693336e-03 
8.945744e-03 
9.185471e-03 
9.412766e-03 
9.627873e-03 
9.831034e-03 
1.002249e-02 
1.020249e-02 
1.037130e-02 
1.052918e-02 
1.067641e-02 
1.081329e-02 
1.094012e-02 
1.105721e-02 
1.116488e-02 
1.126347e-02 
1.135330e-02 
1.143473e-02 
1.150809e-02 
1.157372e-02 
1.125983e-02 
1.126154e-02 
1.126161e-02 
1.126001e-02 
1.125667e-02 
1.125155e-02 
1.124459e-02 
1.123572e-02 
1.122490e-02 
1.121207e-02 
1.119717e-02 
1.118012e-02 
1.116089e-02 
1.113939e-02 
1.111556e-02 
1.108935e-02 
1.106067e-02 
1.102947e-02 
1.099567e-02 
1.095919e-02 
1.091997e-02 
1.087793e-02 
1.083298e-02 
1.078505e-02 
1.073405e-02 
1.067989e-02 
1.062249e-02 
1.056176e-02 
1.049759e-02 
1.042988e-02 
1.035853e-02 
1.028343e-02 
1.020445e-02 
1.012149e-02 
1.003440e-02 
9.943046e-03 
9.847289e-03 
9.746971e-03 
9.641928e-03 
9.531983e-03 
9.416948e-03 
9.296621e-03 
9.170782e-03 
9.039195e-03 
8.901601e-03 
8.757719e-03 
8.607239e-03 
8.449815e-03 
8.285063e-03 
8.112553e-03 
7.931794e-03 
7.742229e-03 
7.543220e-03 
7.334031e-03 
7.113816e-03 
6.881597e-03 
6.636251e-03 
6.376497e-03 
6.100890e-03 
5.807831e-03 
5.495589e-03 
5.162359e-03 
4.806356e-03 
4.425953e-03 
4.019875e-03 
3.587435e-03 
3.128814e-03 
2.645336e-03 
2.139710e-03 
1.616168e-03 
1.080457e-03 
5.396587e-04 
1.821166e-06 
5.245281e-04 
1.030924e-03 
1.509430e-03 
1.952864e-03 
2.354462e-03 
2.706063e-03 
2.990485e-03 
2.810674e-03 
2.527054e-03 
2.180153e-03 
1.783928e-03 
1.347589e-03 
8.789253e-04 
3.852474e-04 
1.263776e-04 
6.491775e-04 
1.176838e-03 
1.703689e-03 
2.224856e-03 
2.736349e-03 
3.235084e-03 
3.718830e-03 
4.186117e-03 
4.636104e-03 
5.068447e-03 
5.483162e-03 
5.880515e-03 
6.260922e-03 
6.624876e-03 
6.972897e-03 
7.305493e-03 
7.623141e-03 
7.926278e-03 
8.215295e-03 
8.490546e-03 
8.752345e-03 
9.000982e-03 
9.236727e-03 
9.459835e-03 
9.670559e-03 
9.869151e-03 
1.005587e-02 
1.023097e-02 
1.039473e-02 
1.054745e-02 
1.068942e-02 
1.082094e-02 
1.094235e-02 
1.105398e-02 
1.115617e-02 
1.124926e-02 
1.133362e-02 
1.140961e-02 
1.147757e-02 
1.153787e-02 
1.117020e-02 
1.117365e-02 
1.117550e-02 
1.117569e-02 
1.117417e-02 
1.117089e-02 
1.116579e-02 
1.115881e-02 
1.114990e-02 
1.113899e-02 
1.112603e-02 
1.111096e-02 
1.109371e-02 
1.107422e-02 
1.105242e-02 
1.102825e-02 
1.100163e-02 
1.097251e-02 
1.094080e-02 
1.090644e-02 
1.086935e-02 
1.082945e-02 
1.078667e-02 
1.074092e-02 
1.069212e-02 
1.064019e-02 
1.058502e-02 
1.052654e-02 
1.046464e-02 
1.039923e-02 
1.033019e-02 
1.025742e-02 
1.018080e-02 
1.010022e-02 
1.001553e-02 
9.926603e-03 
9.833298e-03 
9.735459e-03 
9.632923e-03 
9.525514e-03 
9.413046e-03 
9.295317e-03 
9.172110e-03 
9.043189e-03 
8.908301e-03 
8.767165e-03 
8.619476e-03 
8.464893e-03 
8.303039e-03 
8.133489e-03 
7.955764e-03 
7.769317e-03 
7.573522e-03 
7.367658e-03 
7.150890e-03 
6.922251e-03 
6.680627e-03 
6.424735e-03 
6.153119e-03 
5.864145e-03 
5.556024e-03 
5.226862e-03 
4.874739e-03 
4.497851e-03 
4.094699e-03 
3.664340e-03 
3.206678e-03 
2.722778e-03 
2.215143e-03 
1.687894e-03 
1.146809e-03 
5.991449e-04 
5.328020e-05 
4.818173e-04 
9.971819e-04 
1.484384e-03 
1.935818e-03 
2.344419e-03 
2.701852e-03 
2.990783e-03 
2.810076e-03 
2.522260e-03 
2.169506e-03 
1.766230e-03 
1.321997e-03 
8.449467e-04 
3.427512e-04 
1.771731e-04 
7.077376e-04 
1.242370e-03 
1.775215e-03 
2.301297e-03 
2.816601e-03 
3.318081e-03 
3.803591e-03 
4.271773e-03 
4.721908e-03 
5.153771e-03 
5.567485e-03 
5.963406e-03 
6.342019e-03 
6.703870e-03 
7.049514e-03 
7.379483e-03 
7.694267e-03 
7.994311e-03 
8.280008e-03 
8.551714e-03 
8.809745e-03 
9.054393e-03 
9.285932e-03 
9.504626e-03 
9.710737e-03 
9.904527e-03 
1.008627e-02 
1.025624e-02 
1.041474e-02 
1.056208e-02 
1.069857e-02 
1.082454e-02 
1.094035e-02 
1.104634e-02 
1.114288e-02 
1.123034e-02 
1.130909e-02 
1.137950e-02 
1.144196e-02 
1.149684e-02 
1.107727e-02 
1.108248e-02 
1.108610e-02 
1.108810e-02 
1.108841e-02 
1.108698e-02 
1.108375e-02 
1.107867e-02 
1.107167e-02 
1.106271e-02 
1.105171e-02 
1.103862e-02 
1.102338e-02 
1.100591e-02 
1.098615e-02 
1.096404e-02 
1.093951e-02 
1.091248e-02 
1.088290e-02 
1.085067e-02 
1.081573e-02 
1.077800e-02 
1.073741e-02 
1.069386e-02 
1.064729e-02 
1.059759e-02 
1.054469e-02 
1.048848e-02 
1.042888e-02 
1.036578e-02 
1.029908e-02 
1.022867e-02 
1.015443e-02 
1.007625e-02 
9.993991e-03 
9.907522e-03 
9.816699e-03 
9.721371e-03 
9.621375e-03 
9.516537e-03 
9.406671e-03 
9.291579e-03 
9.171043e-03 
9.044832e-03 
8.912693e-03 
8.774349e-03 
8.629497e-03 
8.477804e-03 
8.318896e-03 
8.152357e-03 
7.977716e-03 
7.794438e-03 
7.601910e-03 
7.399424e-03 
7.186160e-03 
6.961165e-03 
6.723336e-03 
6.471394e-03 
6.203874e-03 
5.919117e-03 
5.615286e-03 
5.290399e-03 
4.942411e-03 
4.569341e-03 
4.169466e-03 
3.741570e-03 
3.285264e-03 
2.801323e-03 
2.292009e-03 
1.761302e-03 
1.214976e-03 
6.604560e-04 
1.064478e-04 
4.376170e-04 
9.622371e-04 
1.458448e-03 
1.918182e-03 
2.334043e-03 
2.697508e-03 
2.991090e-03 
2.809487e-03 
2.517327e-03 
2.158501e-03 
1.747909e-03 
1.295493e-03 
8.097727e-04 
2.988037e-04 
2.296233e-04 
7.680857e-04 
1.309744e-03 
1.848559e-03 
2.379461e-03 
2.898423e-03 
3.402454e-03 
3.889508e-03 
4.358354e-03 
4.808405e-03 
5.239563e-03 
5.652060e-03 
6.046341e-03 
6.422961e-03 
6.782514e-03 
7.125590e-03 
7.452740e-03 
7.764465e-03 
8.061214e-03 
8.343384e-03 
8.611330e-03 
8.865369e-03 
9.105798e-03 
9.332896e-03 
9.546936e-03 
9.748191e-03 
9.936938e-03 
1.011347e-02 
1.027808e-02 
1.043108e-02 
1.057281e-02 
1.070361e-02 
1.082383e-02 
1.093385e-02 
1.103403e-02 
1.112476e-02 
1.120643e-02 
1.127944e-02 
1.134418e-02 
1.140104e-02 
1.145041e-02 
1.098095e-02 
1.098793e-02 
1.099334e-02 
1.099715e-02 
1.099929e-02 
1.099972e-02 
1.099838e-02 
1.099521e-02 
1.099015e-02 
1.098314e-02 
1.097412e-02 
1.096302e-02 
1.094980e-02 
1.093437e-02 
1.091667e-02 
1.089664e-02 
1.087421e-02 
1.084931e-02 
1.082185e-02 
1.079178e-02 
1.075902e-02 
1.072348e-02 
1.068510e-02 
1.064378e-02 
1.059945e-02 
1.055202e-02 
1.050139e-02 
1.044749e-02 
1.039021e-02 
1.032945e-02 
1.026511e-02 
1.019708e-02 
1.012525e-02 
1.004950e-02 
9.969695e-03 
9.885708e-03 
9.797397e-03 
9.704609e-03 
9.607184e-03 
9.504950e-03 
9.397722e-03 
9.285303e-03 
9.167479e-03 
9.044018e-03 
8.914671e-03 
8.779164e-03 
8.637197e-03 
8.488441e-03 
8.332529e-03 
8.169051e-03 
7.997546e-03 
7.817489e-03 
7.628280e-03 
7.429226e-03 
7.219523e-03 
6.998235e-03 
6.764270e-03 
6.516360e-03 
6.253038e-03 
5.972627e-03 
5.673246e-03 
5.352837e-03 
5.009236e-03 
4.640291e-03 
4.244047e-03 
3.819013e-03 
3.364482e-03 
2.880911e-03 
2.370285e-03 
1.836403e-03 
1.285003e-03 
7.236559e-04 
1.613994e-04 
3.918523e-04 
9.260250e-04 
1.431573e-03 
1.899925e-03 
2.323317e-03 
2.693025e-03 
2.991409e-03 
2.808907e-03 
2.512247e-03 
2.147118e-03 
1.728930e-03 
1.268030e-03 
7.733412e-04 
2.533348e-04 
2.837997e-04 
8.302878e-04 
1.379014e-03 
1.923758e-03 
2.459364e-03 
2.981811e-03 
3.488178e-03 
3.976540e-03 
4.445804e-03 
4.895529e-03 
5.325746e-03 
5.736801e-03 
6.129229e-03 
6.503650e-03 
6.860706e-03 
7.201014e-03 
7.525144e-03 
7.833604e-03 
8.126846e-03 
8.405269e-03 
8.669225e-03 
8.919037e-03 
9.155003e-03 
9.377412e-03 
9.586545e-03 
9.782691e-03 
9.966143e-03 
1.013721e-02 
1.029621e-02 
1.044349e-02 
1.057939e-02 
1.070428e-02 
1.081855e-02 
1.092258e-02 
1.101678e-02 
1.110155e-02 
1.117730e-02 
1.124444e-02 
1.130340e-02 
1.135457e-02 
1.139836e-02 
1.088117e-02 
1.088991e-02 
1.089712e-02 
1.090275e-02 
1.090674e-02 
1.090904e-02 
1.090959e-02 
1.090834e-02 
1.090522e-02 
1.090018e-02 
1.089315e-02 
1.088407e-02 
1.087288e-02 
1.085951e-02 
1.084389e-02 
1.082596e-02 
1.080565e-02 
1.078288e-02 
1.075759e-02 
1.072969e-02 
1.069912e-02 
1.066580e-02 
1.062965e-02 
1.059058e-02 
1.054851e-02 
1.050337e-02 
1.045505e-02 
1.040347e-02 
1.034853e-02 
1.029014e-02 
1.022818e-02 
1.016256e-02 
1.009316e-02 
1.001986e-02 
9.942541e-03 
9.861064e-03 
9.775290e-03 
9.685072e-03 
9.590249e-03 
9.490650e-03 
9.386094e-03 
9.276384e-03 
9.161309e-03 
9.040639e-03 
8.914126e-03 
8.781500e-03 
8.642464e-03 
8.496694e-03 
8.343827e-03 
8.183462e-03 
8.015144e-03 
7.838361e-03 
7.652524e-03 
7.456957e-03 
7.250871e-03 
7.033350e-03 
6.803318e-03 
6.559519e-03 
6.300491e-03 
6.024546e-03 
5.729770e-03 
5.414037e-03 
5.075072e-03 
4.710555e-03 
4.318306e-03 
3.896544e-03 
3.444229e-03 
2.961471e-03 
2.449936e-03 
1.913200e-03 
1.356926e-03 
7.888094e-04 
2.182134e-04 
3.444441e-04 
8.884763e-04 
1.403707e-03 
1.881011e-03 
2.312223e-03 
2.688396e-03 
2.991738e-03 
2.808338e-03 
2.507012e-03 
2.135336e-03 
1.709258e-03 
1.239554e-03 
7.355861e-04 
2.062705e-04 
3.397771e-04 
8.944117e-04 
1.450234e-03 
2.000846e-03 
2.541019e-03 
3.066753e-03 
3.575223e-03 
4.064638e-03 
4.534061e-03 
4.983203e-03 
5.412235e-03 
5.821617e-03 
6.211970e-03 
6.583980e-03 
6.938331e-03 
7.275664e-03 
7.596562e-03 
7.901541e-03 
8.191052e-03 
8.465493e-03 
8.725218e-03 
8.970552e-03 
9.201799e-03 
9.419256e-03 
9.623218e-03 
9.813990e-03 
9.991884e-03 
1.015723e-02 
1.031037e-02 
1.045168e-02 
1.058152e-02 
1.070030e-02 
1.080841e-02 
1.090627e-02 
1.099432e-02 
1.107297e-02 
1.114267e-02 
1.120384e-02 
1.125691e-02 
1.130231e-02 
1.134047e-02 
1.077783e-02 
1.078834e-02 
1.079735e-02 
1.080480e-02 
1.081065e-02 
1.081483e-02 
1.081729e-02 
1.081796e-02 
1.081680e-02 
1.081374e-02 
1.080872e-02 
1.080167e-02 
1.079253e-02 
1.078123e-02 
1.076771e-02 
1.075190e-02 
1.073372e-02 
1.071311e-02 
1.069000e-02 
1.066430e-02 
1.063595e-02 
1.060486e-02 
1.057096e-02 
1.053416e-02 
1.049439e-02 
1.045155e-02 
1.040556e-02 
1.035633e-02 
1.030375e-02 
1.024775e-02 
1.018820e-02 
1.012501e-02 
1.005806e-02 
9.987246e-03 
9.912431e-03 
9.833488e-03 
9.750279e-03 
9.662657e-03 
9.570464e-03 
9.473531e-03 
9.371679e-03 
9.264712e-03 
9.152422e-03 
9.034581e-03 
8.910943e-03 
8.781242e-03 
8.645184e-03 
8.502447e-03 
8.352676e-03 
8.195474e-03 
8.030396e-03 
7.856939e-03 
7.674529e-03 
7.482503e-03 
7.280091e-03 
7.066396e-03 
6.840362e-03 
6.600751e-03 
6.346108e-03 
6.074745e-03 
5.784721e-03 
5.473854e-03 
5.139767e-03 
4.779982e-03 
4.392093e-03 
3.974025e-03 
3.524391e-03 
3.042918e-03 
2.530916e-03 
1.991688e-03 
1.430782e-03 
8.559811e-04 
2.769713e-04 
2.953082e-04 
8.495169e-04 
1.374794e-03 
1.861405e-03 
2.300740e-03 
2.683614e-03 
2.992079e-03 
2.807781e-03 
2.501614e-03 
2.123133e-03 
1.688851e-03 
1.210008e-03 
6.964368e-04 
1.575325e-04 
3.976334e-04 
9.605264e-04 
1.523457e-03 
2.079853e-03 
2.624431e-03 
3.153234e-03 
3.663549e-03 
4.153744e-03 
4.623051e-03 
5.071346e-03 
5.498940e-03 
5.906409e-03 
6.294460e-03 
6.663839e-03 
7.015267e-03 
7.349408e-03 
7.666853e-03 
7.968121e-03 
8.253663e-03 
8.523874e-03 
8.779111e-03 
9.019702e-03 
9.245957e-03 
9.458187e-03 
9.656701e-03 
9.841822e-03 
1.001389e-02 
1.017325e-02 
1.032028e-02 
1.045536e-02 
1.057892e-02 
1.069135e-02 
1.079311e-02 
1.088463e-02 
1.096636e-02 
1.103876e-02 
1.110227e-02 
1.115736e-02 
1.120447e-02 
1.124404e-02 
1.127650e-02 
1.067084e-02 
1.068312e-02 
1.069394e-02 
1.070322e-02 
1.071093e-02 
1.071700e-02 
1.072137e-02 
1.072399e-02 
1.072479e-02 
1.072373e-02 
1.072072e-02 
1.071571e-02 
1.070864e-02 
1.069943e-02 
1.068803e-02 
1.067435e-02 
1.065833e-02 
1.063990e-02 
1.061899e-02 
1.059551e-02 
1.056939e-02 
1.054056e-02 
1.050894e-02 
1.047444e-02 
1.043697e-02 
1.039647e-02 
1.035283e-02 
1.030596e-02 
1.025578e-02 
1.020218e-02 
1.014507e-02 
1.008433e-02 
1.001986e-02 
9.951548e-03 
9.879263e-03 
9.802879e-03 
9.722259e-03 
9.637259e-03 
9.547723e-03 
9.453485e-03 
9.354366e-03 
9.250175e-03 
9.140704e-03 
9.025729e-03 
8.905007e-03 
8.778272e-03 
8.645236e-03 
8.505580e-03 
8.358953e-03 
8.204966e-03 
8.043181e-03 
7.873104e-03 
7.694174e-03 
7.505744e-03 
7.307063e-03 
7.097254e-03 
6.875282e-03 
6.639930e-03 
6.389760e-03 
6.123086e-03 
5.837954e-03 
5.532136e-03 
5.203163e-03 
4.848408e-03 
4.465247e-03 
4.051308e-03 
3.604837e-03 
3.125154e-03 
2.613167e-03 
2.071855e-03 
1.506599e-03 
9.252354e-04 
3.377577e-04 
2.443556e-04 
8.090672e-04 
1.344772e-03 
1.841066e-03 
2.288849e-03 
2.678671e-03 
2.992432e-03 
2.807237e-03 
2.496044e-03 
2.110485e-03 
1.667669e-03 
1.179333e-03 
6.558182e-04 
1.070382e-04 
4.574499e-04 
1.028702e-03 
1.598734e-03 
2.160808e-03 
2.709603e-03 
3.241228e-03 
3.753109e-03 
4.243792e-03 
4.712695e-03 
5.159865e-03 
5.585759e-03 
5.991068e-03 
6.376583e-03 
6.743103e-03 
7.091384e-03 
7.422104e-03 
7.735862e-03 
8.033176e-03 
8.314495e-03 
8.580214e-03 
8.830689e-03 
9.066255e-03 
9.287232e-03 
9.493943e-03 
9.686718e-03 
9.865901e-03 
1.003185e-02 
1.018496e-02 
1.032561e-02 
1.045423e-02 
1.057126e-02 
1.067715e-02 
1.077236e-02 
1.085735e-02 
1.093261e-02 
1.099862e-02 
1.105584e-02 
1.110475e-02 
1.114582e-02 
1.117949e-02 
1.120623e-02 
1.056009e-02 
1.057416e-02 
1.058678e-02 
1.059790e-02 
1.060748e-02 
1.061544e-02 
1.062174e-02 
1.062631e-02 
1.062909e-02 
1.063003e-02 
1.062906e-02 
1.062611e-02 
1.062112e-02 
1.061402e-02 
1.060474e-02 
1.059322e-02 
1.057938e-02 
1.056314e-02 
1.054445e-02 
1.052321e-02 
1.049935e-02 
1.047280e-02 
1.044348e-02 
1.041129e-02 
1.037617e-02 
1.033802e-02 
1.029675e-02 
1.025228e-02 
1.020451e-02 
1.015334e-02 
1.009868e-02 
1.004042e-02 
9.978457e-03 
9.912667e-03 
9.842934e-03 
9.769131e-03 
9.691125e-03 
9.608771e-03 
9.521918e-03 
9.430400e-03 
9.334043e-03 
9.232657e-03 
9.126038e-03 
9.013963e-03 
8.896193e-03 
8.772466e-03 
8.642495e-03 
8.505966e-03 
8.362533e-03 
8.211811e-03 
8.053371e-03 
7.886729e-03 
7.711335e-03 
7.526557e-03 
7.331663e-03 
7.125797e-03 
6.907950e-03 
6.676927e-03 
6.431311e-03 
6.169430e-03 
5.889321e-03 
5.588724e-03 
5.265092e-03 
4.915661e-03 
4.537595e-03 
4.128226e-03 
3.685421e-03 
3.208063e-03 
2.696616e-03 
2.153677e-03 
1.584401e-03 
9.966350e-04 
4.006600e-04 
1.914922e-04 
7.670419e-04 
1.313575e-03 
1.819951e-03 
2.276527e-03 
2.673559e-03 
2.992798e-03 
2.806707e-03 
2.490294e-03 
2.097365e-03 
1.645664e-03 
1.147461e-03 
6.136498e-04 
5.470023e-05 
5.193106e-04 
1.099010e-03 
1.676113e-03 
2.243732e-03 
2.796527e-03 
3.330701e-03 
3.843847e-03 
4.334708e-03 
4.802902e-03 
5.248659e-03 
5.672583e-03 
6.075479e-03 
6.458215e-03 
6.821640e-03 
7.166537e-03 
7.493597e-03 
7.803421e-03 
8.096522e-03 
8.373349e-03 
8.634294e-03 
8.879718e-03 
9.109961e-03 
9.325356e-03 
9.526245e-03 
9.712977e-03 
9.885923e-03 
1.004547e-02 
1.019204e-02 
1.032605e-02 
1.044796e-02 
1.055823e-02 
1.065736e-02 
1.074582e-02 
1.082413e-02 
1.089277e-02 
1.095226e-02 
1.100308e-02 
1.104573e-02 
1.108070e-02 
1.110845e-02 
1.112944e-02 
1.044549e-02 
1.046134e-02 
1.047578e-02 
1.048875e-02 
1.050019e-02 
1.051006e-02 
1.051829e-02 
1.052482e-02 
1.052959e-02 
1.053255e-02 
1.053362e-02 
1.053274e-02 
1.052985e-02 
1.052487e-02 
1.051774e-02 
1.050839e-02 
1.049674e-02 
1.048273e-02 
1.046627e-02 
1.044730e-02 
1.042572e-02 
1.040148e-02 
1.037447e-02 
1.034463e-02 
1.031187e-02 
1.027609e-02 
1.023722e-02 
1.019517e-02 
1.014984e-02 
1.010113e-02 
1.004894e-02 
9.993184e-03 
9.933739e-03 
9.870496e-03 
9.803338e-03 
9.732140e-03 
9.656768e-03 
9.577084e-03 
9.492936e-03 
9.404164e-03 
9.310594e-03 
9.212041e-03 
9.108303e-03 
8.999162e-03 
8.884379e-03 
8.763697e-03 
8.636832e-03 
8.503474e-03 
8.363282e-03 
8.215876e-03 
8.060834e-03 
7.897680e-03 
7.725877e-03 
7.544808e-03 
7.353759e-03 
7.151895e-03 
6.938234e-03 
6.711607e-03 
6.470623e-03 
6.213629e-03 
5.938667e-03 
5.643454e-03 
5.325381e-03 
4.981559e-03 
4.608953e-03 
4.204600e-03 
3.765981e-03 
3.291515e-03 
2.781175e-03 
2.237117e-03 
1.664204e-03 
1.070241e-03 
4.657683e-04 
1.366179e-04 
7.233495e-04 
1.281133e-03 
1.798015e-03 
2.263749e-03 
2.668270e-03 
2.993177e-03 
2.806194e-03 
2.484353e-03 
2.083746e-03 
1.622787e-03 
1.114324e-03 
5.698460e-04 
4.264471e-07 
5.833029e-04 
1.171521e-03 
1.755643e-03 
2.328641e-03 
2.885189e-03 
3.421611e-03 
3.935695e-03 
4.426404e-03 
4.893573e-03 
5.337617e-03 
5.759294e-03 
6.159514e-03 
6.539220e-03 
6.899305e-03 
7.240572e-03 
7.563719e-03 
7.869344e-03 
8.157959e-03 
8.430006e-03 
8.685880e-03 
8.925943e-03 
9.150546e-03 
9.360041e-03 
9.554786e-03 
9.735160e-03 
9.901559e-03 
1.005441e-02 
1.019415e-02 
1.032125e-02 
1.043619e-02 
1.053949e-02 
1.063164e-02 
1.071318e-02 
1.078463e-02 
1.084652e-02 
1.089938e-02 
1.094372e-02 
1.098005e-02 
1.100887e-02 
1.103067e-02 
1.104591e-02 
1.032694e-02 
1.034458e-02 
1.036083e-02 
1.037564e-02 
1.038897e-02 
1.040074e-02 
1.041091e-02 
1.041941e-02 
1.042618e-02 
1.043116e-02 
1.043429e-02 
1.043550e-02 
1.043472e-02 
1.043188e-02 
1.042692e-02 